 argument  1 = shielding.nw
  NWChem w/ OpenMP: maximum threads =    4




             Northwest Computational Chemistry Package (NWChem) 7.2.0
             --------------------------------------------------------


                    Environmental Molecular Sciences Laboratory
                       Pacific Northwest National Laboratory
                                Richland, WA 99352

                              Copyright (c) 1994-2022
                       Pacific Northwest National Laboratory
                            Battelle Memorial Institute

             NWChem is an open-source computational chemistry package
                        distributed under the terms of the
                      Educational Community License (ECL) 2.0
             A copy of the license is included with this distribution
                              in the LICENSE.TXT file

                                  ACKNOWLEDGMENT
                                  --------------

            This software and its documentation were developed at the
            EMSL at Pacific Northwest National Laboratory, a multiprogram
            national laboratory, operated for the U.S. Department of Energy
            by Battelle under Contract Number DE-AC05-76RL01830. Support
            for this work was provided by the Department of Energy Office
            of Biological and Environmental Research, Office of Basic
            Energy Sciences, and the Office of Advanced Scientific Computing.


           Job information
           ---------------

    hostname        =
    program         = nwchem
    date            = Mon Oct  9 14:12:02 2023

    compiled        = Fri_Oct_06_05:23:11_2023
    source          = /home/conda/feedstock_root/build_artifacts/nwchem_1696560026657/work
    nwchem branch   = 7.2.0
    nwchem revision = 55d7d9f
    ga revision     = 5.8.0
    use scalapack   = T
    input           = shielding.nw
    prefix          = shielding.
    data base       = ./shielding.db
    status          = startup
    nproc           =        1
    time left       =     -1s



           Memory information
           ------------------

    heap     =   26214398 doubles =    200.0 Mbytes
    stack    =   26214395 doubles =    200.0 Mbytes
    global   =   52428800 doubles =    400.0 Mbytes (distinct from heap & stack)
    total    =  104857593 doubles =    800.0 Mbytes
    verify   = yes
    hardfail = no


           Directory information
           ---------------------

  0 permanent = .
  0 scratch   = .




                                NWChem Input Module
                                -------------------


                                    Shieldings
                                    ----------

 Scaling coordinates for geometry "geometry" by  1.889725989
 (inverse scale =  0.529177249)

 CS  symmetry detected

          ------
          auto-z
          ------
  no constraints, skipping    0.0000000000000000
  no constraints, skipping    0.0000000000000000


                             Geometry "geometry" -> ""
                             -------------------------

 Output coordinates in angstroms (scale by  1.889725989 to convert to a.u.)

  No.       Tag          Charge          X              Y              Z
 ---- ---------------- ---------- -------------- -------------- --------------
    1 O                    8.0000    -1.12135496     1.56178996     0.00000000
    2 C                    6.0000     0.00713485     1.08306192     0.00000000
    3 O                    8.0000     1.12247093     1.58869452     0.00000000
    4 C                    6.0000     0.00807699    -0.52775480     0.00000000
    5 F                    9.0000     1.23847773    -1.07879199     0.00000000
    6 F                    9.0000    -0.62480547    -1.04592170     1.07710000
    7 F                    9.0000    -0.62480547    -1.04592170    -1.07710000

      Atomic Mass
      -----------

      O                 15.994910
      C                 12.000000
      F                 18.998400


 Effective nuclear repulsion energy (a.u.)     321.9578337573

            Nuclear Dipole moment (a.u.)
            ----------------------------
        X                 Y               Z
 ---------------- ---------------- ----------------
     0.0000000000    -0.0000000000     0.0000000000

      Symmetry information
      --------------------

 Group name             Cs
 Group number              2
 Group order               2
 No. of unique centers     6

      Symmetry unique atoms

     1    2    3    4    5    6



                                Z-matrix (autoz)
                                --------

 Units are Angstrom for bonds and degrees for angles

      Type          Name      I     J     K     L     M      Value
      ----------- --------  ----- ----- ----- ----- ----- ----------
    1 Stretch                  1     2                       1.22583
    2 Stretch                  2     3                       1.22460
    3 Stretch                  2     4                       1.61082
    4 Stretch                  4     5                       1.34816
    5 Stretch                  4     6                       1.35247
    6 Stretch                  4     7                       1.35247
    7 Bend                     1     2     3               132.62542
    8 Bend                     1     2     4               113.02114
    9 Bend                     2     4     5               114.15882
   10 Bend                     2     4     6               112.51045
   11 Bend                     2     4     7               112.51045
   12 Bend                     3     2     4               114.35344
   13 Bend                     5     4     6               105.69255
   14 Bend                     5     4     7               105.69255
   15 Bend                     6     4     7               105.57412
   16 Torsion                  1     2     4     5         180.00000
   17 Torsion                  1     2     4     6         -59.55038
   18 Torsion                  1     2     4     7          59.55038
   19 Torsion                  3     2     4     5           0.00000
   20 Torsion                  3     2     4     6         120.44962
   21 Torsion                  3     2     4     7        -120.44962


            XYZ format geometry
            -------------------
     7
 geometry
 O                    -1.12135496     1.56178996     0.00000000
 C                     0.00713485     1.08306192     0.00000000
 O                     1.12247093     1.58869452     0.00000000
 C                     0.00807699    -0.52775480     0.00000000
 F                     1.23847773    -1.07879199     0.00000000
 F                    -0.62480547    -1.04592170     1.07710000
 F                    -0.62480547    -1.04592170    -1.07710000

 ==============================================================================
                                internuclear distances
 ------------------------------------------------------------------------------
       center one      |      center two      | atomic units |  angstroms
 ------------------------------------------------------------------------------
    2 C                |   1 O                |     2.31649  |     1.22583
    3 O                |   2 C                |     2.31415  |     1.22460
    4 C                |   2 C                |     3.04400  |     1.61082
    5 F                |   4 C                |     2.54765  |     1.34816
    6 F                |   4 C                |     2.55580  |     1.35247
    7 F                |   4 C                |     2.55580  |     1.35247
 ------------------------------------------------------------------------------
                         number of included internuclear distances:          6
 ==============================================================================



 ==============================================================================
                                 internuclear angles
 ------------------------------------------------------------------------------
        center 1       |       center 2       |       center 3       |  degrees
 ------------------------------------------------------------------------------
    1 O                |   2 C                |   3 O                |   132.63
    1 O                |   2 C                |   4 C                |   113.02
    3 O                |   2 C                |   4 C                |   114.35
    2 C                |   4 C                |   5 F                |   114.16
    2 C                |   4 C                |   6 F                |   112.51
    2 C                |   4 C                |   7 F                |   112.51
    5 F                |   4 C                |   6 F                |   105.69
    5 F                |   4 C                |   7 F                |   105.69
    6 F                |   4 C                |   7 F                |   105.57
 ------------------------------------------------------------------------------
                            number of included internuclear angles:          9
 ==============================================================================



  library name resolved from: environment
  library file name is: <share/nwchem/libraries/>



 Summary of "ao basis" -> "" (cartesian)
 ------------------------------------------------------------------------------
       Tag                 Description            Shells   Functions and Types
 ---------------- ------------------------------  ------  ---------------------
 *                         Def2-TZVP                  on all atoms


                              NWChem Property Module
                              ----------------------


                                    Shieldings

  itol2e modified to match energy
  convergence criterion.

                                 NWChem DFT Module
                                 -----------------


                                    Shieldings


                      Basis "ao basis" -> "ao basis" (cartesian)
                      -----
  O (Oxygen)
  ----------
            Exponent  Coefficients
       -------------- ---------------------------------------------------------
  1 S  2.70323826E+04  0.000217
  1 S  4.05238714E+03  0.001684
  1 S  9.22327227E+02  0.008740
  1 S  2.61240710E+02  0.035240
  1 S  8.53546414E+01  0.111535
  1 S  3.10350352E+01  0.255890

  2 S  1.22608607E+01  0.397687
  2 S  4.99870760E+00  0.246278

  3 S  1.17031082E+00  1.000000

  4 S  4.64747410E-01  1.000000

  5 S  1.85045364E-01  1.000000

  6 P  6.32749548E+01  0.006069
  6 P  1.46270494E+01  0.041913
  6 P  4.45012235E+00  0.161538
  6 P  1.52757996E+00  0.357070

  7 P  5.29351179E-01  1.000000

  8 P  1.74784213E-01  1.000000

  9 D  2.31400000E+00  1.000000

 10 D  6.45000000E-01  1.000000

 11 F  1.42800000E+00  1.000000

  C (Carbon)
  ----------
            Exponent  Coefficients
       -------------- ---------------------------------------------------------
  1 S  1.35753497E+04  0.000222
  1 S  2.03523337E+03  0.001723
  1 S  4.63225624E+02  0.008926
  1 S  1.31200196E+02  0.035728
  1 S  4.28530159E+01  0.110763
  1 S  1.55841858E+01  0.242956

  2 S  6.20671385E+00  0.414403
  2 S  2.57648965E+00  0.237450

  3 S  5.76963394E-01  1.000000

  4 S  2.29728314E-01  1.000000

  5 S  9.51644400E-02  1.000000

  6 P  3.46972322E+01  0.005333
  6 P  7.95826228E+00  0.035864
  6 P  2.37808269E+00  0.142159
  6 P  8.14332082E-01  0.342705

  7 P  2.88875473E-01  1.000000

  8 P  1.00568237E-01  1.000000

  9 D  1.09700000E+00  1.000000

 10 D  3.18000000E-01  1.000000

 11 F  7.61000000E-01  1.000000

  F (Fluorine)
  ------------
            Exponent  Coefficients
       -------------- ---------------------------------------------------------
  1 S  3.54791004E+04  0.000215
  1 S  5.31847290E+03  0.001670
  1 S  1.21048110E+03  0.008673
  1 S  3.42855181E+02  0.035050
  1 S  1.12019432E+02  0.111653
  1 S  4.07147402E+01  0.259885

  2 S  1.60396781E+01  0.394230
  2 S  6.50381867E+00  0.249982

  3 S  1.54404775E+00  1.000000

  4 S  6.12234529E-01  1.000000

  5 S  2.40279797E-01  1.000000

  6 P  8.02339005E+01  0.006369
  6 P  1.85940107E+01  0.044303
  6 P  5.68679027E+00  0.168672
  6 P  1.95110063E+00  0.361663

  7 P  6.69702113E-01  1.000000

  8 P  2.16513004E-01  1.000000

  9 D  3.10700000E+00  1.000000

 10 D  8.55000000E-01  1.000000

 11 F  1.91700000E+00  1.000000



 Summary of "ao basis" -> "ao basis" (cartesian)
 ------------------------------------------------------------------------------
       Tag                 Description            Shells   Functions and Types
 ---------------- ------------------------------  ------  ---------------------
 O                         Def2-TZVP                11       36   5s3p2d1f
 C                         Def2-TZVP                11       36   5s3p2d1f
 F                         Def2-TZVP                11       36   5s3p2d1f




 Summary of "ao basis" -> "ao basis" (cartesian)
 ------------------------------------------------------------------------------
       Tag                 Description            Shells   Functions and Types
 ---------------- ------------------------------  ------  ---------------------
 O                         Def2-TZVP                11       36   5s3p2d1f
 C                         Def2-TZVP                11       36   5s3p2d1f
 F                         Def2-TZVP                11       36   5s3p2d1f


 in cosmo_initialize ...
 calling solv_data for solv:h2o

 solvent parameters
 solvname_short: h2o
 solvname_long:  water
 dielec:       78.4000

          ---------------
          -cosmo- solvent
          ---------------
 Cosmo: York-Karplus, doi: 10.1021/jp992097l
 dielectric constant -eps-     =  78.40
 screen = (eps-1)/(eps    )    =   0.98724
 surface charge correction     = lagrangian

 solvent accessible surface
 --------------------------

 ---------- ATOMIC COORDINATES (A.U.) ------------ VDWR(ANG.) --
     1   -2.11905361    2.95135507    0.00000000     1.720
     2    0.01348292    2.04669025    0.00000000     2.000
     3    2.12116250    3.00219733    0.00000000     1.720
     4    0.01526329   -0.99731197    0.00000000     2.000
     5    2.34038355   -2.03862127    0.00000000     1.720
     6   -1.18071113   -1.97650542    2.03542386     1.720
     7   -1.18071113   -1.97650542   -2.03542386     1.720
 number of segments per atom =         32
 number of   points per atom =         32
 atom (   nspa,  nppa )
 ----------------------
    1 (     20,     0 )       0
    2 (     12,     0 )       0
    3 (     20,     0 )       0
    4 (      6,     0 )       0
    5 (     18,     0 )       0
    6 (     20,     0 )       0
    7 (     20,     0 )       0
 number of -cosmo- surface points =      116
 molecular surface =    112.667 angstrom**2
 molecular volume  =     65.988 angstrom**3
 G(cav/disp)       =      1.423 kcal/mol
 -lineq- algorithm             =   0
 -bem- low  level              =   2
 -bem- from -octahedral-
 gaussian surface charge width =   4.50000
 degree of switching           =   1.00000
 switching function tolerance  =   0.00010
 atomic radii =
 --------------
    1  8.000  1.720
    2  6.000  2.000
    3  8.000  1.720
    4  6.000  2.000
    5  9.000  1.720
    6  9.000  1.720
    7  9.000  1.720
 ...... end of -cosmo- initialization ......


  Caching 1-el integrals
  itol2e modified to match energy
  convergence criterion.

            General Information
            -------------------
          SCF calculation type: DFT
          Wavefunction type:  closed shell.
          No. of atoms     :     7
          No. of electrons :    56
           Alpha electrons :    28
            Beta electrons :    28
          Charge           :    -1
          Spin multiplicity:     1
          Use of symmetry is: off; symmetry adaption is: off
          Maximum number of iterations:  50
          AO basis - number of functions:   252
                     number of shells:    77
          Convergence on energy requested:  1.00D-07
          Convergence on density requested:  1.00D-05
          Convergence on gradient requested:  5.00D-04

              XC Information
              --------------
          Using LibXC version      6.2.2
                                        gga_xc_kt3  1.000

             Grid Information
             ----------------
          Grid used for XC integration:  fine
          Radial quadrature: Mura-Knowles
          Angular quadrature: Lebedev.
          Tag              B.-S. Rad. Rad. Pts. Rad. Cut. Ang. Pts.
          ---              ---------- --------- --------- ---------
          O                   0.60       70           9.0       590
          C                   0.70       70           8.0       590
          F                   0.50       70          10.0       590
          Grid pruning is: on
          Number of quadrature shells:   490
          Spatial weights used:  Erf1

          Convergence Information
          -----------------------
          Convergence aids based upon iterative change in
          total energy or number of iterations.
          Levelshifting, if invoked, occurs when the
          HOMO/LUMO gap drops below (HL_TOL):  1.00D-02
          DIIS, if invoked, will attempt to extrapolate
          using up to (NFOCK): 10 stored Fock matrices.

                    Damping( 0%)  Levelshifting(0.5)       DIIS
                  --------------- ------------------- ---------------
          dE  on:    start            ASAP                start
          dE off:    2 iters         50 iters            50 iters


      Screening Tolerance Information
      -------------------------------
          Density screening/tol_rho:  1.00D-11
          AO Gaussian exp screening on grid/accAOfunc:  16
          CD Gaussian exp screening on grid/accCDfunc:  20
          XC Gaussian exp screening on grid/accXCfunc:  20
          Schwarz screening/accCoul:  1.00D-08


      Superposition of Atomic Density Guess
      -------------------------------------

 Sum of atomic energies:        -523.16550600

 Renormalizing density from      55.00 to     56

      Non-variational initial energy
      ------------------------------

 Total energy =    -530.993645
 1-e energy   =   -1391.244862
 2-e energy   =     538.293384
 HOMO         =      -0.011665
 LUMO         =       0.336329

  WARNING: movecs_in_org=atomic not equal to movecs_in=./shielding.movecs
   Time after variat. SCF:      2.2
   Time prior to 1st pass:      2.2

 Grid_pts file          = ./shielding.gridpts.0
 Record size in doubles =  12289        No. of grid_pts per rec  =   3070
 Max. records in memory =    105        Max. recs in file   = *********


           Memory utilization after 1st SCF pass:
           Heap Space remaining (MW):        0.00                  32
          Stack Space remaining (MW):       26.21            26212972

   convergence    iter        energy       DeltaE   RMS-Dens  Diis-err    time
 ---------------- ----- ----------------- --------- --------- ---------  ------
     COSMO gas phase
 d= 0,ls=0.0,diis     1   -532.7840419918 -8.55D+02  1.06D-02  1.63D+01    17.6
 d= 0,ls=0.0,diis     2   -531.3446300797  1.44D+00  1.08D-02  2.01D+01    33.0
 d= 0,ls=0.0,diis     3   -532.6845989852 -1.34D+00  5.01D-03  5.64D+00    48.2
 d= 0,ls=0.0,diis     4   -533.1740124533 -4.89D-01  2.93D-03  4.06D-01    63.5
 d= 0,ls=0.0,diis     5   -533.2024863893 -2.85D-02  7.58D-04  5.54D-02    78.7
  Resetting Diis
 d= 0,ls=0.0,diis     6   -533.2058828566 -3.40D-03  3.28D-04  2.21D-02    94.3
 d= 0,ls=0.0,diis     7   -533.2077917808 -1.91D-03  3.09D-04  1.94D-03   109.8
 d= 0,ls=0.0,diis     8   -533.2064960515  1.30D-03  2.43D-04  1.54D-02   125.4
 d= 0,ls=0.0,diis     9   -533.2079578801 -1.46D-03  2.80D-05  2.42D-04   141.0
 d= 0,ls=0.0,diis    10   -533.2079804346 -2.26D-05  8.43D-06  6.92D-06   156.5
 d= 0,ls=0.0,diis    11   -533.2079809236 -4.89D-07  2.23D-06  9.31D-07   172.1
 d= 0,ls=0.0,diis    12   -533.2079810132 -8.96D-08  5.93D-07  3.30D-08   187.6

           Memory utilization after 1st SCF pass:
           Heap Space remaining (MW):        0.00                  32
          Stack Space remaining (MW):       26.21            26212972

   convergence    iter        energy       DeltaE   RMS-Dens  Diis-err    time
 ---------------- ----- ----------------- --------- --------- ---------  ------
     COSMO solvation phase
 d= 0,ls=0.0,diis     1   -533.3023690802 -9.44D-02  8.75D-04  4.32D-03   203.7
 d= 0,ls=0.0,diis     2   -533.3032247764 -8.56D-04  2.17D-04  4.50D-03   219.7
 d= 0,ls=0.0,diis     3   -533.3035662966 -3.42D-04  5.84D-05  1.23D-03   235.7
 d= 0,ls=0.0,diis     4   -533.3036575975 -9.13D-05  1.79D-05  5.46D-05   251.8
 d= 0,ls=0.0,diis     5   -533.3036601549 -2.56D-06  1.04D-05  2.21D-05   267.8
 d= 0,ls=0.0,diis     6   -533.3036616180 -1.46D-06  4.52D-06  4.76D-06   283.8
 d= 0,ls=0.0,diis     7   -533.3036620404 -4.22D-07  1.05D-06  3.26D-07   299.8
 d= 0,ls=0.0,diis     8   -533.3036620661 -2.57D-08  3.82D-07  2.60D-08   315.8


         Total DFT energy =     -533.303662066109
      One electron energy =    -1391.516590486455
           Coulomb energy =      593.331797472202
    Exchange-Corr. energy =      -66.956246469875
 Nuclear repulsion energy =      321.957833757349

             COSMO energy =        9.879543660670

 Numeric. integr. density =       56.000000104063

     Total iterative time =    313.6s


                                   COSMO solvation results
                                   -----------------------

                 gas phase energy =      -533.207981013239
                 sol phase energy =      -533.303662066109
 (electrostatic) solvation energy =         0.095681052870 (   60.04 kcal/mol)

                       DFT Final Molecular Orbital Analysis
                       ------------------------------------

 Vector    1  Occ=2.000000D+00  E=-2.464706D+01
              MO Center= -6.2D-01, -1.0D+00,  5.6D-02, r^2= 1.2D+00
   Bfn.  Coefficient  Atom+Function         Bfn.  Coefficient  Atom+Function
  ----- ------------  ---------------      ----- ------------  ---------------
   182      0.468064  6 F  s                218      0.444268  7 F  s
   181      0.314183  6 F  s                217      0.298210  7 F  s
   184     -0.054143  6 F  s                220     -0.051402  7 F  s
   183      0.037764  6 F  s                219      0.035849  7 F  s

 Vector    2  Occ=2.000000D+00  E=-2.464706D+01
              MO Center= -6.2D-01, -1.0D+00, -5.6D-02, r^2= 1.2D+00
   Bfn.  Coefficient  Atom+Function         Bfn.  Coefficient  Atom+Function
  ----- ------------  ---------------      ----- ------------  ---------------
   218     -0.468064  7 F  s                182      0.444268  6 F  s
   217     -0.314183  7 F  s                181      0.298210  6 F  s
   220      0.053935  7 F  s                184     -0.051182  6 F  s
   219     -0.037673  7 F  s                183      0.035753  6 F  s

 Vector    3  Occ=2.000000D+00  E=-2.464566D+01
              MO Center=  1.2D+00, -1.1D+00,  6.0D-14, r^2= 1.2D-02
   Bfn.  Coefficient  Atom+Function         Bfn.  Coefficient  Atom+Function
  ----- ------------  ---------------      ----- ------------  ---------------
   146      0.645334  5 F  s                145      0.433174  5 F  s
   148     -0.074501  5 F  s                147      0.052003  5 F  s

 Vector    4  Occ=2.000000D+00  E=-1.904624D+01
              MO Center=  1.1D+00,  1.6D+00, -6.2D-14, r^2= 1.5D-02
   Bfn.  Coefficient  Atom+Function         Bfn.  Coefficient  Atom+Function
  ----- ------------  ---------------      ----- ------------  ---------------
    74      0.635448  3 O  s                 73      0.444250  3 O  s
    76     -0.077881  3 O  s                 75      0.051739  3 O  s

 Vector    5  Occ=2.000000D+00  E=-1.904595D+01
              MO Center= -1.1D+00,  1.6D+00,  3.8D-14, r^2= 1.5D-02
   Bfn.  Coefficient  Atom+Function         Bfn.  Coefficient  Atom+Function
  ----- ------------  ---------------      ----- ------------  ---------------
     2      0.635448  1 O  s                  1      0.444251  1 O  s
     4     -0.077886  1 O  s                  3      0.051704  1 O  s

 Vector    6  Occ=2.000000D+00  E=-1.036538D+01
              MO Center=  8.1D-03, -5.3D-01,  1.4D-12, r^2= 2.7D-02
   Bfn.  Coefficient  Atom+Function         Bfn.  Coefficient  Atom+Function
  ----- ------------  ---------------      ----- ------------  ---------------
   110      0.601729  4 C  s                109      0.480614  4 C  s
   112     -0.089524  4 C  s                111      0.055670  4 C  s
   132      0.025547  4 C  dyy

 Vector    7  Occ=2.000000D+00  E=-1.023964D+01
              MO Center=  7.1D-03,  1.1D+00, -1.8D-13, r^2= 2.7D-02
   Bfn.  Coefficient  Atom+Function         Bfn.  Coefficient  Atom+Function
  ----- ------------  ---------------      ----- ------------  ---------------
    38      0.600811  2 C  s                 37      0.480426  2 C  s
    40     -0.086064  2 C  s                 39      0.057192  2 C  s

 Vector    8  Occ=2.000000D+00  E=-1.229122D+00
              MO Center= -3.4D-03, -9.7D-01,  2.0D-08, r^2= 1.4D+00
   Bfn.  Coefficient  Atom+Function         Bfn.  Coefficient  Atom+Function
  ----- ------------  ---------------      ----- ------------  ---------------
   148      0.219770  5 F  s                184      0.219948  6 F  s
   220      0.219948  7 F  s                147      0.202964  5 F  s
   183      0.203632  6 F  s                219      0.203632  7 F  s
   111      0.158503  4 C  s                146     -0.128343  5 F  s
   182     -0.128657  6 F  s                218     -0.128657  7 F  s

 Vector    9  Occ=2.000000D+00  E=-1.145825D+00
              MO Center= -5.5D-01, -9.9D-01,  2.1D-06, r^2= 1.4D+00
   Bfn.  Coefficient  Atom+Function         Bfn.  Coefficient  Atom+Function
  ----- ------------  ---------------      ----- ------------  ---------------
   184      0.321294  6 F  s                220     -0.321293  7 F  s
   183      0.274407  6 F  s                219     -0.274406  7 F  s
   182     -0.176454  6 F  s                218      0.176454  7 F  s
   185      0.126233  6 F  s                221     -0.126233  7 F  s
   116      0.103039  4 C  pz               181     -0.074948  6 F  s

 Vector   10  Occ=2.000000D+00  E=-1.145408D+00
              MO Center=  5.4D-01, -1.0D+00, -2.1D-06, r^2= 1.4D+00
   Bfn.  Coefficient  Atom+Function         Bfn.  Coefficient  Atom+Function
  ----- ------------  ---------------      ----- ------------  ---------------
   148      0.369797  5 F  s                147      0.317328  5 F  s
   146     -0.203600  5 F  s                184     -0.184430  6 F  s
   220     -0.184431  7 F  s                183     -0.158976  6 F  s
   219     -0.158977  7 F  s                149      0.143916  5 F  s
   114      0.104243  4 C  px               182      0.101814  6 F  s

 Vector   11  Occ=2.000000D+00  E=-9.870094D-01
              MO Center=  4.8D-03,  1.4D+00, -9.1D-11, r^2= 1.1D+00
   Bfn.  Coefficient  Atom+Function         Bfn.  Coefficient  Atom+Function
  ----- ------------  ---------------      ----- ------------  ---------------
    39      0.240729  2 C  s                  3      0.223251  1 O  s
    75      0.223648  3 O  s                 76      0.214299  3 O  s
     4      0.213093  1 O  s                  2     -0.137921  1 O  s
    74     -0.138438  3 O  s                 38     -0.137447  2 C  s
    40      0.135907  2 C  s                  6      0.078704  1 O  px

 Vector   12  Occ=2.000000D+00  E=-9.074318D-01
              MO Center=  1.0D-03,  1.4D+00,  1.5D-11, r^2= 1.3D+00
   Bfn.  Coefficient  Atom+Function         Bfn.  Coefficient  Atom+Function
  ----- ------------  ---------------      ----- ------------  ---------------
     4      0.279365  1 O  s                 76     -0.279684  3 O  s
     3      0.248670  1 O  s                 75     -0.247746  3 O  s
    42     -0.207956  2 C  px                 2     -0.159284  1 O  s
    74      0.159096  3 O  s                  5      0.093365  1 O  s
    77     -0.093206  3 O  s                 45     -0.088276  2 C  px

 Vector   13  Occ=2.000000D+00  E=-6.557793D-01
              MO Center= -5.3D-03, -6.3D-01,  9.6D-09, r^2= 2.1D+00
   Bfn.  Coefficient  Atom+Function         Bfn.  Coefficient  Atom+Function
  ----- ------------  ---------------      ----- ------------  ---------------
   112      0.309262  4 C  s                111      0.288112  4 C  s
   110     -0.159609  4 C  s                150     -0.143495  5 F  px
   148     -0.128569  5 F  s                184     -0.127612  6 F  s
   220     -0.127612  7 F  s                188     -0.126686  6 F  pz
   224      0.126686  7 F  pz               183     -0.113179  6 F  s

 Vector   14  Occ=2.000000D+00  E=-5.461800D-01
              MO Center=  5.4D-03, -2.1D-01,  2.2D-08, r^2= 2.3D+00
   Bfn.  Coefficient  Atom+Function         Bfn.  Coefficient  Atom+Function
  ----- ------------  ---------------      ----- ------------  ---------------
   115      0.257365  4 C  py                40      0.177795  2 C  s
   150      0.158438  5 F  px                43     -0.145634  2 C  py
   118      0.144755  4 C  py               188      0.129808  6 F  pz
   224     -0.129808  7 F  pz               153      0.125091  5 F  px
    39      0.115230  2 C  s                191      0.103390  6 F  pz

 Vector   15  Occ=2.000000D+00  E=-5.270611D-01
              MO Center= -3.5D-01, -9.5D-01,  1.5D-07, r^2= 1.8D+00
   Bfn.  Coefficient  Atom+Function         Bfn.  Coefficient  Atom+Function
  ----- ------------  ---------------      ----- ------------  ---------------
   116      0.254531  4 C  pz               186      0.180700  6 F  px
   222     -0.180700  7 F  px               188     -0.164577  6 F  pz
   224     -0.164577  7 F  pz               152      0.143910  5 F  pz
   189      0.142031  6 F  px               225     -0.142031  7 F  px
   187      0.131203  6 F  py               223     -0.131203  7 F  py

 Vector   16  Occ=2.000000D+00  E=-5.250535D-01
              MO Center=  3.5D-01, -9.7D-01, -1.6D-07, r^2= 1.8D+00
   Bfn.  Coefficient  Atom+Function         Bfn.  Coefficient  Atom+Function
  ----- ------------  ---------------      ----- ------------  ---------------
   150     -0.265511  5 F  px               114      0.255266  4 C  px
   153     -0.206558  5 F  px               188      0.182220  6 F  pz
   224     -0.182220  7 F  pz               151      0.161161  5 F  py
   191      0.143810  6 F  pz               227     -0.143810  7 F  pz
   154      0.128651  5 F  py               117      0.122063  4 C  px

 Vector   17  Occ=2.000000D+00  E=-4.331974D-01
              MO Center=  4.9D-02,  1.0D+00,  1.6D-08, r^2= 3.2D+00
   Bfn.  Coefficient  Atom+Function         Bfn.  Coefficient  Atom+Function
  ----- ------------  ---------------      ----- ------------  ---------------
    39      0.217609  2 C  s                  6      0.210085  1 O  px
    78     -0.210494  3 O  px                40      0.201514  2 C  s
     4     -0.162123  1 O  s                 76     -0.160147  3 O  s
   151     -0.146216  5 F  py                 9      0.144058  1 O  px
     3     -0.142242  1 O  s                 75     -0.141513  3 O  s

 Vector   18  Occ=2.000000D+00  E=-4.078954D-01
              MO Center=  1.3D-01, -9.8D-01,  2.0D-07, r^2= 2.1D+00
   Bfn.  Coefficient  Atom+Function         Bfn.  Coefficient  Atom+Function
  ----- ------------  ---------------      ----- ------------  ---------------
   152      0.310236  5 F  pz               155      0.248469  5 F  pz
   187     -0.219986  6 F  py               223      0.219986  7 F  py
   190     -0.174713  6 F  py               226      0.174713  7 F  py
   158      0.148542  5 F  pz               186      0.125291  6 F  px
   222     -0.125291  7 F  px               193     -0.112563  6 F  py

 Vector   19  Occ=2.000000D+00  E=-4.073530D-01
              MO Center= -2.6D-01, -9.9D-01, -1.4D-07, r^2= 2.0D+00
   Bfn.  Coefficient  Atom+Function         Bfn.  Coefficient  Atom+Function
  ----- ------------  ---------------      ----- ------------  ---------------
   186      0.252080  6 F  px               222      0.252080  7 F  px
   151     -0.214579  5 F  py               189      0.204353  6 F  px
   225      0.204353  7 F  px               154     -0.170179  5 F  py
   187      0.140257  6 F  py               223      0.140257  7 F  py
   188      0.124599  6 F  pz               224     -0.124599  7 F  pz

 Vector   20  Occ=2.000000D+00  E=-3.801504D-01
              MO Center= -1.5D-01, -4.6D-02,  9.1D-08, r^2= 3.1D+00
   Bfn.  Coefficient  Atom+Function         Bfn.  Coefficient  Atom+Function
  ----- ------------  ---------------      ----- ------------  ---------------
   188      0.219515  6 F  pz               224      0.219515  7 F  pz
    44      0.185296  2 C  pz               191      0.177849  6 F  pz
   227      0.177849  7 F  pz               152      0.169899  5 F  pz
     8      0.147512  1 O  pz                80      0.145984  3 O  pz
   155      0.139484  5 F  pz               187      0.124075  6 F  py

 Vector   21  Occ=2.000000D+00  E=-3.789622D-01
              MO Center=  2.2D-02,  1.1D+00, -5.7D-08, r^2= 3.0D+00
   Bfn.  Coefficient  Atom+Function         Bfn.  Coefficient  Atom+Function
  ----- ------------  ---------------      ----- ------------  ---------------
    42      0.242718  2 C  px                 6     -0.211902  1 O  px
    78     -0.195519  3 O  px                79     -0.163618  3 O  py
     7      0.148525  1 O  py               150      0.142294  5 F  px
     9     -0.140713  1 O  px                45      0.132454  2 C  px
     3      0.128560  1 O  s                 75     -0.125250  3 O  s

 Vector   22  Occ=2.000000D+00  E=-3.682843D-01
              MO Center= -1.3D-01, -7.9D-02, -1.4D-08, r^2= 3.2D+00
   Bfn.  Coefficient  Atom+Function         Bfn.  Coefficient  Atom+Function
  ----- ------------  ---------------      ----- ------------  ---------------
   187      0.245543  6 F  py               223      0.245543  7 F  py
   190      0.200174  6 F  py               226      0.200174  7 F  py
    43      0.188999  2 C  py                78     -0.177182  3 O  px
    81     -0.128649  3 O  px                 7      0.125421  1 O  py
    46      0.125643  2 C  py               193      0.117385  6 F  py

 Vector   23  Occ=2.000000D+00  E=-3.654049D-01
              MO Center=  5.2D-01, -4.7D-01,  8.5D-09, r^2= 2.8D+00
   Bfn.  Coefficient  Atom+Function         Bfn.  Coefficient  Atom+Function
  ----- ------------  ---------------      ----- ------------  ---------------
   151      0.348218  5 F  py               154      0.281730  5 F  py
   150      0.218231  5 F  px               153      0.174510  5 F  px
   157      0.172409  5 F  py                 6      0.162301  1 O  px
   186      0.136513  6 F  px               222      0.136513  7 F  px
     9      0.119521  1 O  px                43      0.114694  2 C  py

 Vector   24  Occ=2.000000D+00  E=-3.538264D-01
              MO Center= -2.7D-01,  2.1D-01, -5.3D-08, r^2= 3.1D+00
   Bfn.  Coefficient  Atom+Function         Bfn.  Coefficient  Atom+Function
  ----- ------------  ---------------      ----- ------------  ---------------
    44      0.202177  2 C  pz               187     -0.196218  6 F  py
   223      0.196218  7 F  py                80      0.186344  3 O  pz
     8      0.175520  1 O  pz               188     -0.171876  6 F  pz
   224     -0.171876  7 F  pz               190     -0.158122  6 F  py
   226      0.158122  7 F  py                83      0.149692  3 O  pz

 Vector   25  Occ=2.000000D+00  E=-3.490430D-01
              MO Center=  8.7D-02, -9.6D-01, -7.7D-08, r^2= 2.2D+00
   Bfn.  Coefficient  Atom+Function         Bfn.  Coefficient  Atom+Function
  ----- ------------  ---------------      ----- ------------  ---------------
   152      0.327396  5 F  pz               155      0.264456  5 F  pz
   186     -0.263639  6 F  px               222      0.263639  7 F  px
   189     -0.212395  6 F  px               225      0.212395  7 F  px
   158      0.172434  5 F  pz               192     -0.141558  6 F  px
   228      0.141558  7 F  px               188     -0.118722  6 F  pz

 Vector   26  Occ=2.000000D+00  E=-2.355034D-01
              MO Center= -1.9D-02,  1.5D+00,  3.1D-10, r^2= 1.9D+00
   Bfn.  Coefficient  Atom+Function         Bfn.  Coefficient  Atom+Function
  ----- ------------  ---------------      ----- ------------  ---------------
     8      0.341869  1 O  pz                80     -0.335429  3 O  pz
    11      0.268789  1 O  pz                83     -0.264520  3 O  pz
    14      0.237208  1 O  pz                86     -0.231401  3 O  pz
    59     -0.076888  2 C  dxz               53     -0.051841  2 C  dxz

 Vector   27  Occ=2.000000D+00  E=-2.163116D-01
              MO Center= -2.5D-01,  1.4D+00,  1.7D-10, r^2= 2.0D+00
   Bfn.  Coefficient  Atom+Function         Bfn.  Coefficient  Atom+Function
  ----- ------------  ---------------      ----- ------------  ---------------
     7      0.322699  1 O  py                10      0.257642  1 O  py
    78      0.211176  3 O  px                13      0.209037  1 O  py
    79     -0.207448  3 O  py                 6      0.202257  1 O  px
    81      0.175516  3 O  px                 9      0.169962  1 O  px
    82     -0.161623  3 O  py                84      0.155185  3 O  px

 Vector   28  Occ=2.000000D+00  E=-2.153050D-01
              MO Center=  2.7D-01,  1.1D+00, -9.2D-10, r^2= 2.5D+00
   Bfn.  Coefficient  Atom+Function         Bfn.  Coefficient  Atom+Function
  ----- ------------  ---------------      ----- ------------  ---------------
    79      0.335670  3 O  py                82      0.276721  3 O  py
     7      0.229837  1 O  py                85      0.220694  3 O  py
   113      0.217602  4 C  s                115      0.200456  4 C  py
    10      0.194015  1 O  py               112      0.186019  4 C  s
    40      0.184572  2 C  s                 13      0.154266  1 O  py

 Vector   29  Occ=0.000000D+00  E=-1.378371D-03
              MO Center=  1.0D-02,  8.2D-01,  1.5D-08, r^2= 2.3D+00
   Bfn.  Coefficient  Atom+Function         Bfn.  Coefficient  Atom+Function
  ----- ------------  ---------------      ----- ------------  ---------------
    47      0.406983  2 C  pz               122      0.329855  4 C  pz
    44      0.314596  2 C  pz                14     -0.296576  1 O  pz
    86     -0.294407  3 O  pz                50      0.259390  2 C  pz
    80     -0.242716  3 O  pz               119      0.239715  4 C  pz
     8     -0.232807  1 O  pz               185     -0.228158  6 F  s

 Vector   30  Occ=0.000000D+00  E= 7.278725D-02
              MO Center=  7.4D-02,  6.1D-01,  1.4D-07, r^2= 6.4D+00
   Bfn.  Coefficient  Atom+Function         Bfn.  Coefficient  Atom+Function
  ----- ------------  ---------------      ----- ------------  ---------------
    41      2.666744  2 C  s                  5     -1.576503  1 O  s
    77     -1.583517  3 O  s                113      1.439080  4 C  s
    40      1.425606  2 C  s                 49      0.761585  2 C  py
   149     -0.752098  5 F  s                185     -0.678194  6 F  s
   221     -0.678194  7 F  s                121     -0.671284  4 C  py

 Vector   31  Occ=0.000000D+00  E= 9.997894D-02
              MO Center= -3.0D-01, -3.4D-01,  8.1D-08, r^2= 3.8D+00
   Bfn.  Coefficient  Atom+Function         Bfn.  Coefficient  Atom+Function
  ----- ------------  ---------------      ----- ------------  ---------------
    77      1.261918  3 O  s                113      0.990299  4 C  s
    48     -0.916723  2 C  px               185     -0.895545  6 F  s
   221     -0.895545  7 F  s                120     -0.781496  4 C  px
     5     -0.709822  1 O  s                117     -0.584882  4 C  px
    41     -0.531663  2 C  s                194      0.421002  6 F  pz

 Vector   32  Occ=0.000000D+00  E= 1.045908D-01
              MO Center=  2.2D-01, -2.6D-01,  4.0D-08, r^2= 5.8D+00
   Bfn.  Coefficient  Atom+Function         Bfn.  Coefficient  Atom+Function
  ----- ------------  ---------------      ----- ------------  ---------------
     5      1.473007  1 O  s                149     -1.266767  5 F  s
   121     -1.177971  4 C  py                41     -1.107605  2 C  s
   113      1.081832  4 C  s                 40     -0.928812  2 C  s
    49     -0.832994  2 C  py                77      0.755821  3 O  s
   185     -0.673592  6 F  s                221     -0.673592  7 F  s

 Vector   33  Occ=0.000000D+00  E= 1.443131D-01
              MO Center= -1.1D-02, -1.6D-01, -1.4D-07, r^2= 3.8D+00
   Bfn.  Coefficient  Atom+Function         Bfn.  Coefficient  Atom+Function
  ----- ------------  ---------------      ----- ------------  ---------------
   122      1.526150  4 C  pz               185     -1.012963  6 F  s
   221      1.012963  7 F  s                119      0.634576  4 C  pz
    47     -0.605937  2 C  pz                50     -0.333394  2 C  pz
   192     -0.313799  6 F  px               228      0.313799  7 F  px
   116      0.306458  4 C  pz                44     -0.273361  2 C  pz

 Vector   34  Occ=0.000000D+00  E= 1.811879D-01
              MO Center=  7.0D-02,  1.0D+00,  4.6D-08, r^2= 6.3D+00
   Bfn.  Coefficient  Atom+Function         Bfn.  Coefficient  Atom+Function
  ----- ------------  ---------------      ----- ------------  ---------------
    48      3.571156  2 C  px                77     -3.294882  3 O  s
     5      3.092919  1 O  s                 45      1.008952  2 C  px
    49      0.862208  2 C  py                41     -0.840663  2 C  s
    84      0.787640  3 O  px                13     -0.743540  1 O  py
   120     -0.729313  4 C  px               113      0.700444  4 C  s

 Vector   35  Occ=0.000000D+00  E= 1.860111D-01
              MO Center= -2.9D-02, -3.7D-01, -8.3D-09, r^2= 5.0D+00
   Bfn.  Coefficient  Atom+Function         Bfn.  Coefficient  Atom+Function
  ----- ------------  ---------------      ----- ------------  ---------------
    41      3.405238  2 C  s                113     -3.226226  4 C  s
   121     -2.966646  4 C  py                49     -2.816360  2 C  py
     5      1.403778  1 O  s                 48      0.919034  2 C  px
   111     -0.528166  4 C  s                 12      0.514661  1 O  px
   112     -0.501297  4 C  s                 85      0.416379  3 O  py

 Vector   36  Occ=0.000000D+00  E= 1.924687D-01
              MO Center=  4.0D-02,  7.0D-01,  1.0D-08, r^2= 4.6D+00
   Bfn.  Coefficient  Atom+Function         Bfn.  Coefficient  Atom+Function
  ----- ------------  ---------------      ----- ------------  ---------------
    50      1.515489  2 C  pz                47     -0.774581  2 C  pz
   119     -0.417123  4 C  pz               116     -0.294684  4 C  pz
   131     -0.270762  4 C  dxz              185     -0.224148  6 F  s
   221      0.224149  7 F  s                 14     -0.217095  1 O  pz
    86     -0.216398  3 O  pz                72      0.167467  2 C  fzzz

 Vector   37  Occ=0.000000D+00  E= 2.143057D-01
              MO Center= -2.1D-01, -2.4D-01,  1.6D-08, r^2= 2.8D+00
   Bfn.  Coefficient  Atom+Function         Bfn.  Coefficient  Atom+Function
  ----- ------------  ---------------      ----- ------------  ---------------
   113      4.673176  4 C  s                 41     -3.300470  2 C  s
    49      2.359024  2 C  py               121      1.428399  4 C  py
   120     -0.665326  4 C  px               185     -0.547817  6 F  s
   221     -0.547817  7 F  s                111     -0.528775  4 C  s
   118      0.495872  4 C  py               132     -0.495962  4 C  dyy

 Vector   38  Occ=0.000000D+00  E= 2.250661D-01
              MO Center=  3.1D-02, -6.3D-01, -1.0D-08, r^2= 6.3D+00
   Bfn.  Coefficient  Atom+Function         Bfn.  Coefficient  Atom+Function
  ----- ------------  ---------------      ----- ------------  ---------------
   120      3.263500  4 C  px                48     -2.514915  2 C  px
   149     -2.019383  5 F  s                 77      1.518604  3 O  s
   113      1.250332  4 C  s                  5     -1.223919  1 O  s
    41     -1.036584  2 C  s                185      0.861099  6 F  s
   221      0.861098  7 F  s                 49      0.718156  2 C  py

 Vector   39  Occ=0.000000D+00  E= 2.436668D-01
              MO Center=  1.6D-01,  3.9D-03,  1.7D-07, r^2= 6.2D+00
   Bfn.  Coefficient  Atom+Function         Bfn.  Coefficient  Atom+Function
  ----- ------------  ---------------      ----- ------------  ---------------
   122      2.637459  4 C  pz                50     -1.845151  2 C  pz
   185     -1.257841  6 F  s                221      1.257841  7 F  s
    47      0.605500  2 C  pz               131     -0.528818  4 C  dxz
   119     -0.314828  4 C  pz               133     -0.291638  4 C  dyz
   116     -0.273852  4 C  pz               158     -0.195255  5 F  pz

 Vector   40  Occ=0.000000D+00  E= 2.569133D-01
              MO Center=  1.6D-02,  9.2D-01, -6.0D-08, r^2= 5.5D+00
   Bfn.  Coefficient  Atom+Function         Bfn.  Coefficient  Atom+Function
  ----- ------------  ---------------      ----- ------------  ---------------
    41      3.382767  2 C  s                 49     -3.390612  2 C  py
   113     -3.267494  4 C  s                 39     -0.783105  2 C  s
    57     -0.779151  2 C  dxx               46      0.755864  2 C  py
    62     -0.488457  2 C  dzz              149      0.483766  5 F  s
    60     -0.411058  2 C  dyy              185      0.406614  6 F  s

 Vector   41  Occ=0.000000D+00  E= 2.923821D-01
              MO Center= -1.7D-02, -7.4D-02, -1.0D-07, r^2= 5.6D+00
   Bfn.  Coefficient  Atom+Function         Bfn.  Coefficient  Atom+Function
  ----- ------------  ---------------      ----- ------------  ---------------
   113    -11.569349  4 C  s                 41     11.122141  2 C  s
   121     -5.589053  4 C  py                49     -4.247636  2 C  py
    39     -1.054648  2 C  s                111      0.909556  4 C  s
    77     -0.857179  3 O  s                 40      0.814793  2 C  s
   118      0.797384  4 C  py                62     -0.750456  2 C  dzz

 Vector   42  Occ=0.000000D+00  E= 3.242442D-01
              MO Center=  6.9D-02,  1.7D+00, -6.1D-09, r^2= 5.1D+00
   Bfn.  Coefficient  Atom+Function         Bfn.  Coefficient  Atom+Function
  ----- ------------  ---------------      ----- ------------  ---------------
    84     -1.441280  3 O  px                12      1.392912  1 O  px
    39     -1.309182  2 C  s                 60     -1.054268  2 C  dyy
   113      1.015094  4 C  s                 57     -0.966315  2 C  dxx
    46     -0.901745  2 C  py                 5      0.890494  1 O  s
    77      0.858190  3 O  s                 62     -0.763389  2 C  dzz

 Vector   43  Occ=0.000000D+00  E= 3.971264D-01
              MO Center= -1.9D-01,  6.0D-01,  1.8D-07, r^2= 6.1D+00
   Bfn.  Coefficient  Atom+Function         Bfn.  Coefficient  Atom+Function
  ----- ------------  ---------------      ----- ------------  ---------------
    14      0.883467  1 O  pz                86     -0.870271  3 O  pz
   119      0.779915  4 C  pz                11     -0.551622  1 O  pz
    83      0.525350  3 O  pz               133     -0.519241  4 C  dyz
   194      0.489083  6 F  pz               230      0.489082  7 F  pz
   192     -0.466320  6 F  px               228      0.466319  7 F  px

 Vector   44  Occ=0.000000D+00  E= 4.024659D-01
              MO Center= -2.4D-01,  6.0D-01,  1.1D-08, r^2= 6.6D+00
   Bfn.  Coefficient  Atom+Function         Bfn.  Coefficient  Atom+Function
  ----- ------------  ---------------      ----- ------------  ---------------
    45      1.578663  2 C  px                12      1.336937  1 O  px
    48     -1.278950  2 C  px                13     -1.219738  1 O  py
     5      1.204298  1 O  s                117      1.107386  4 C  px
    41     -0.864729  2 C  s                 40     -0.847497  2 C  s
   149     -0.849209  5 F  s                120      0.837884  4 C  px

 Vector   45  Occ=0.000000D+00  E= 4.193069D-01
              MO Center=  2.5D-01,  1.0D+00, -9.9D-08, r^2= 5.0D+00
   Bfn.  Coefficient  Atom+Function         Bfn.  Coefficient  Atom+Function
  ----- ------------  ---------------      ----- ------------  ---------------
    41      3.752013  2 C  s                113     -2.195945  4 C  s
     5     -2.143018  1 O  s                 40      1.944143  2 C  s
    77     -1.615461  3 O  s                 49     -1.432281  2 C  py
    84      1.336296  3 O  px                48     -1.185052  2 C  px
    85      1.182035  3 O  py                45      0.787444  2 C  px

 Vector   46  Occ=0.000000D+00  E= 4.321799D-01
              MO Center=  5.0D-02,  3.5D-01,  2.3D-08, r^2= 5.1D+00
   Bfn.  Coefficient  Atom+Function         Bfn.  Coefficient  Atom+Function
  ----- ------------  ---------------      ----- ------------  ---------------
    41      3.701618  2 C  s                113     -3.177925  4 C  s
   121     -1.342864  4 C  py                49     -1.111691  2 C  py
    48      0.889602  2 C  px               117      0.870763  4 C  px
    39     -0.790480  2 C  s                 77     -0.741727  3 O  s
   194     -0.700705  6 F  pz               230      0.700705  7 F  pz

 Vector   47  Occ=0.000000D+00  E= 4.547665D-01
              MO Center= -4.6D-01, -4.1D-01,  5.5D-07, r^2= 6.3D+00
   Bfn.  Coefficient  Atom+Function         Bfn.  Coefficient  Atom+Function
  ----- ------------  ---------------      ----- ------------  ---------------
   119      1.706085  4 C  pz               194      0.899812  6 F  pz
   230      0.899811  7 F  pz               185     -0.784377  6 F  s
   221      0.784377  7 F  s                193     -0.691794  6 F  py
   229      0.691794  7 F  py               192     -0.639552  6 F  px
   228      0.639552  7 F  px                14     -0.615119  1 O  pz

 Vector   48  Occ=0.000000D+00  E= 4.643009D-01
              MO Center=  9.4D-02, -3.0D-01, -6.7D-07, r^2= 6.8D+00
   Bfn.  Coefficient  Atom+Function         Bfn.  Coefficient  Atom+Function
  ----- ------------  ---------------      ----- ------------  ---------------
    41      1.815923  2 C  s                113     -1.642843  4 C  s
   111      1.481714  4 C  s                134      1.277832  4 C  dzz
   156      1.170862  5 F  px               129      1.134731  4 C  dxx
   185     -1.085334  6 F  s                221     -1.085334  7 F  s
   132      1.013459  4 C  dyy              118     -0.963444  4 C  py

 Vector   49  Occ=0.000000D+00  E= 4.927224D-01
              MO Center=  5.7D-01,  5.5D-01, -1.3D-08, r^2= 6.6D+00
   Bfn.  Coefficient  Atom+Function         Bfn.  Coefficient  Atom+Function
  ----- ------------  ---------------      ----- ------------  ---------------
    41      1.727411  2 C  s                 48      1.682427  2 C  px
    45     -1.401706  2 C  px                12     -1.308299  1 O  px
   113     -1.178057  4 C  s                149     -1.148713  5 F  s
   156      1.135003  5 F  px                84     -1.008913  3 O  px
   129      0.862571  4 C  dxx              157     -0.829924  5 F  py

 Vector   50  Occ=0.000000D+00  E= 5.154587D-01
              MO Center= -4.1D-01,  5.7D-02, -7.5D-08, r^2= 5.7D+00
   Bfn.  Coefficient  Atom+Function         Bfn.  Coefficient  Atom+Function
  ----- ------------  ---------------      ----- ------------  ---------------
    14      1.153804  1 O  pz               158      0.696750  5 F  pz
   193     -0.629313  6 F  py               229      0.629313  7 F  py
    11     -0.611728  1 O  pz                50     -0.472760  2 C  pz
   131     -0.379316  4 C  dxz              133      0.379990  4 C  dyz
   155     -0.342491  5 F  pz                86      0.325210  3 O  pz

 Vector   51  Occ=0.000000D+00  E= 5.213263D-01
              MO Center= -1.3D-01,  7.3D-01,  4.9D-08, r^2= 3.7D+00
   Bfn.  Coefficient  Atom+Function         Bfn.  Coefficient  Atom+Function
  ----- ------------  ---------------      ----- ------------  ---------------
    77      2.751571  3 O  s                 48     -1.416760  2 C  px
    58     -1.215428  2 C  dxy               13     -1.057891  1 O  py
   113     -0.986541  4 C  s                 84     -0.848116  3 O  px
   117     -0.841094  4 C  px               120      0.791505  4 C  px
    40     -0.779568  2 C  s                121     -0.768388  4 C  py

 Vector   52  Occ=0.000000D+00  E= 5.415602D-01
              MO Center=  1.3D-02,  6.6D-01, -1.4D-08, r^2= 5.8D+00
   Bfn.  Coefficient  Atom+Function         Bfn.  Coefficient  Atom+Function
  ----- ------------  ---------------      ----- ------------  ---------------
    50      1.935039  2 C  pz                86     -1.632229  3 O  pz
    14     -1.116985  1 O  pz               122     -0.928430  4 C  pz
    83      0.629233  3 O  pz                61      0.545582  2 C  dyz
   192      0.545892  6 F  px               228     -0.545892  7 F  px
    11      0.453597  1 O  pz               193     -0.409848  6 F  py

 Vector   53  Occ=0.000000D+00  E= 5.864666D-01
              MO Center= -1.2D-01,  4.5D-01,  1.4D-08, r^2= 4.6D+00
   Bfn.  Coefficient  Atom+Function         Bfn.  Coefficient  Atom+Function
  ----- ------------  ---------------      ----- ------------  ---------------
    49      1.899392  2 C  py                13     -1.526949  1 O  py
    41     -1.309917  2 C  s                 40     -1.234104  2 C  s
     5      1.138426  1 O  s                 85     -1.064880  3 O  py
    77      0.800300  3 O  s                117     -0.792053  4 C  px
   112     -0.774532  4 C  s                149      0.637123  5 F  s

 Vector   54  Occ=0.000000D+00  E= 6.406887D-01
              MO Center=  2.2D-01, -5.2D-01, -3.7D-08, r^2= 5.8D+00
   Bfn.  Coefficient  Atom+Function         Bfn.  Coefficient  Atom+Function
  ----- ------------  ---------------      ----- ------------  ---------------
    50      1.227640  2 C  pz               158      1.111794  5 F  pz
    86     -0.970643  3 O  pz               192     -0.879554  6 F  px
   228      0.879553  7 F  px                14     -0.826375  1 O  pz
   155     -0.589653  5 F  pz               122     -0.461468  4 C  pz
   189      0.418402  6 F  px               225     -0.418401  7 F  px

 Vector   55  Occ=0.000000D+00  E= 6.420023D-01
              MO Center=  7.6D-01, -6.6D-01,  1.1D-07, r^2= 5.2D+00
   Bfn.  Coefficient  Atom+Function         Bfn.  Coefficient  Atom+Function
  ----- ------------  ---------------      ----- ------------  ---------------
   113     -1.892377  4 C  s                 41      1.867591  2 C  s
    49     -1.586795  2 C  py                85      1.273708  3 O  py
   157      1.275419  5 F  py                48     -1.034646  2 C  px
   120      0.982834  4 C  px               121     -0.737795  4 C  py
   130     -0.674149  4 C  dxy              149     -0.670532  5 F  s

 Vector   56  Occ=0.000000D+00  E= 6.736979D-01
              MO Center= -2.7D-01, -9.5D-01,  2.5D-06, r^2= 4.4D+00
   Bfn.  Coefficient  Atom+Function         Bfn.  Coefficient  Atom+Function
  ----- ------------  ---------------      ----- ------------  ---------------
   194      1.102437  6 F  pz               230      1.102434  7 F  pz
   122     -0.935444  4 C  pz               158      0.911087  5 F  pz
   193      0.716597  6 F  py               229     -0.716596  7 F  py
   133     -0.581538  4 C  dyz              155     -0.437884  5 F  pz
   185     -0.412384  6 F  s                221      0.412381  7 F  s

 Vector   57  Occ=0.000000D+00  E= 6.739007D-01
              MO Center=  2.4D-01,  1.8D+00, -2.5D-06, r^2= 4.7D+00
   Bfn.  Coefficient  Atom+Function         Bfn.  Coefficient  Atom+Function
  ----- ------------  ---------------      ----- ------------  ---------------
    77      5.754109  3 O  s                 49     -4.462797  2 C  py
   113     -4.125926  4 C  s                  5      3.835916  1 O  s
    40     -2.628363  2 C  s                121     -1.720188  4 C  py
    84     -1.602776  3 O  px                12      1.306816  1 O  px
    75     -1.092116  3 O  s                 13      0.886272  1 O  py

 Vector   58  Occ=0.000000D+00  E= 7.160381D-01
              MO Center= -3.1D-01, -2.8D-01, -4.0D-08, r^2= 5.6D+00
   Bfn.  Coefficient  Atom+Function         Bfn.  Coefficient  Atom+Function
  ----- ------------  ---------------      ----- ------------  ---------------
     5      4.294527  1 O  s                120     -2.382329  4 C  px
    48      2.359948  2 C  px                41     -2.178087  2 C  s
    40     -1.898787  2 C  s                192      1.271998  6 F  px
   228      1.271998  7 F  px               156      1.143121  5 F  px
   129      1.065341  4 C  dxx              121      0.846061  4 C  py

 Vector   59  Occ=0.000000D+00  E= 7.242912D-01
              MO Center=  5.7D-02,  1.6D-01, -8.2D-08, r^2= 3.3D+00
   Bfn.  Coefficient  Atom+Function         Bfn.  Coefficient  Atom+Function
  ----- ------------  ---------------      ----- ------------  ---------------
   185      1.582670  6 F  s                221     -1.582670  7 F  s
   122     -1.440793  4 C  pz                59     -1.396317  2 C  dxz
   131     -1.199184  4 C  dxz              158      0.870328  5 F  pz
    50      0.739671  2 C  pz               119     -0.688345  4 C  pz
   183     -0.590828  6 F  s                219      0.590828  7 F  s

 Vector   60  Occ=0.000000D+00  E= 7.416798D-01
              MO Center= -1.7D-01, -5.6D-01, -2.4D-08, r^2= 4.9D+00
   Bfn.  Coefficient  Atom+Function         Bfn.  Coefficient  Atom+Function
  ----- ------------  ---------------      ----- ------------  ---------------
    41      3.837658  2 C  s                113     -3.275220  4 C  s
   121     -3.210612  4 C  py                 5     -2.446106  1 O  s
    49     -1.732976  2 C  py                77      1.410165  3 O  s
    45     -1.181530  2 C  px               193      1.170166  6 F  py
   229      1.170166  7 F  py               120     -1.160728  4 C  px

 Vector   61  Occ=0.000000D+00  E= 7.720177D-01
              MO Center= -6.9D-02, -3.5D-01, -2.8D-08, r^2= 3.7D+00
   Bfn.  Coefficient  Atom+Function         Bfn.  Coefficient  Atom+Function
  ----- ------------  ---------------      ----- ------------  ---------------
   185      1.478449  6 F  s                221     -1.478449  7 F  s
   131      1.071946  4 C  dxz              194     -1.066283  6 F  pz
   230     -1.066283  7 F  pz               119     -1.017892  4 C  pz
   122      0.920765  4 C  pz                61      0.813637  2 C  dyz
   158     -0.768754  5 F  pz               133     -0.710876  4 C  dyz

 Vector   62  Occ=0.000000D+00  E= 8.005794D-01
              MO Center=  1.2D-01,  5.4D-03,  9.5D-09, r^2= 6.6D+00
   Bfn.  Coefficient  Atom+Function         Bfn.  Coefficient  Atom+Function
  ----- ------------  ---------------      ----- ------------  ---------------
     5      5.938595  1 O  s                 77     -4.566067  3 O  s
    48      3.631495  2 C  px               121     -2.796611  4 C  py
   149     -2.234176  5 F  s                 41      1.720535  2 C  s
    45      1.592395  2 C  px               185     -1.340234  6 F  s
   221     -1.340234  7 F  s                112      1.195557  4 C  s

 Vector   63  Occ=0.000000D+00  E= 8.492799D-01
              MO Center= -2.4D-01, -8.4D-01,  1.8D-09, r^2= 4.4D+00
   Bfn.  Coefficient  Atom+Function         Bfn.  Coefficient  Atom+Function
  ----- ------------  ---------------      ----- ------------  ---------------
   113      3.336198  4 C  s                185     -2.516251  6 F  s
   221     -2.516251  7 F  s                 77      2.490783  3 O  s
   112      2.352816  4 C  s                  5     -1.987831  1 O  s
    41     -1.936646  2 C  s                132     -1.704061  4 C  dyy
   121     -1.644505  4 C  py                46     -1.353949  2 C  py

 Vector   64  Occ=0.000000D+00  E= 8.664815D-01
              MO Center=  8.9D-02, -3.2D-01, -3.1D-08, r^2= 3.1D+00
   Bfn.  Coefficient  Atom+Function         Bfn.  Coefficient  Atom+Function
  ----- ------------  ---------------      ----- ------------  ---------------
    40      3.907307  2 C  s                149     -2.320063  5 F  s
   120      1.803857  4 C  px                41      1.730636  2 C  s
    39     -1.340027  2 C  s                 62     -1.274696  2 C  dzz
   112      1.273706  4 C  s                  5     -1.116963  1 O  s
    48     -1.077362  2 C  px                77     -0.977465  3 O  s

 Vector   65  Occ=0.000000D+00  E= 8.815949D-01
              MO Center=  7.1D-02, -5.0D-01, -2.7D-08, r^2= 4.3D+00
   Bfn.  Coefficient  Atom+Function         Bfn.  Coefficient  Atom+Function
  ----- ------------  ---------------      ----- ------------  ---------------
   185     -3.637539  6 F  s                221      3.637540  7 F  s
   122      3.394136  4 C  pz               131     -1.384830  4 C  dxz
    50     -0.934991  2 C  pz               158     -0.935271  5 F  pz
   133     -0.783289  4 C  dyz              183      0.693633  6 F  s
   219     -0.693634  7 F  s                 61      0.618274  2 C  dyz

 Vector   66  Occ=0.000000D+00  E= 9.054632D-01
              MO Center= -4.1D-01, -2.3D-02,  7.4D-08, r^2= 4.7D+00
   Bfn.  Coefficient  Atom+Function         Bfn.  Coefficient  Atom+Function
  ----- ------------  ---------------      ----- ------------  ---------------
    40      5.333273  2 C  s                 41      3.841383  2 C  s
   185     -2.591654  6 F  s                221     -2.591653  7 F  s
    49     -2.524957  2 C  py               149      2.529757  5 F  s
    62     -2.467917  2 C  dzz               39     -2.428629  2 C  s
     5     -2.338742  1 O  s                120     -2.086211  4 C  px

 Vector   67  Occ=0.000000D+00  E= 9.149971D-01
              MO Center=  5.6D-01,  2.4D-01, -7.5D-09, r^2= 4.8D+00
   Bfn.  Coefficient  Atom+Function         Bfn.  Coefficient  Atom+Function
  ----- ------------  ---------------      ----- ------------  ---------------
   113      5.769677  4 C  s                 77      4.818944  3 O  s
   149     -4.176012  5 F  s                 41     -3.656662  2 C  s
    48     -3.428332  2 C  px               121      2.691806  4 C  py
     5     -2.544502  1 O  s                120      2.103988  4 C  px
   112      1.389488  4 C  s                 57     -1.303190  2 C  dxx

 Vector   68  Occ=0.000000D+00  E= 9.648107D-01
              MO Center= -3.5D-01,  2.3D-01,  3.4D-09, r^2= 3.7D+00
   Bfn.  Coefficient  Atom+Function         Bfn.  Coefficient  Atom+Function
  ----- ------------  ---------------      ----- ------------  ---------------
     5      2.917288  1 O  s                120     -2.425007  4 C  px
   113      2.244827  4 C  s                 77     -2.161217  3 O  s
   149      2.057597  5 F  s                130      1.925666  4 C  dxy
    48      1.844900  2 C  px                41     -1.770702  2 C  s
   185     -1.609016  6 F  s                221     -1.609016  7 F  s

 Vector   69  Occ=0.000000D+00  E= 9.865623D-01
              MO Center=  4.8D-02,  7.0D-01, -3.2D-09, r^2= 3.1D+00
   Bfn.  Coefficient  Atom+Function         Bfn.  Coefficient  Atom+Function
  ----- ------------  ---------------      ----- ------------  ---------------
   133      2.064141  4 C  dyz               61      1.707513  2 C  dyz
    47      1.198287  2 C  pz                50     -1.117256  2 C  pz
   122      0.640338  4 C  pz                44     -0.549295  2 C  pz
    70     -0.427957  2 C  fyyz              72     -0.398256  2 C  fzzz
    65     -0.356121  2 C  fxxz             131      0.338614  4 C  dxz

 Vector   70  Occ=0.000000D+00  E= 1.022558D+00
              MO Center=  1.0D-01,  1.8D-01,  1.6D-09, r^2= 3.5D+00
   Bfn.  Coefficient  Atom+Function         Bfn.  Coefficient  Atom+Function
  ----- ------------  ---------------      ----- ------------  ---------------
   113      8.492022  4 C  s                 41     -7.098685  2 C  s
   112      4.212007  4 C  s                 40     -3.544659  2 C  s
   121      3.384433  4 C  py                49      2.632231  2 C  py
   134     -2.044976  4 C  dzz              185     -1.870830  6 F  s
   221     -1.870830  7 F  s                 62      1.599453  2 C  dzz

 Vector   71  Occ=0.000000D+00  E= 1.060628D+00
              MO Center=  6.5D-02,  2.3D-01,  5.9D-09, r^2= 2.8D+00
   Bfn.  Coefficient  Atom+Function         Bfn.  Coefficient  Atom+Function
  ----- ------------  ---------------      ----- ------------  ---------------
   119     -1.780827  4 C  pz                59      1.666559  2 C  dxz
   131     -1.376252  4 C  dxz              185      1.368596  6 F  s
   221     -1.368596  7 F  s                183     -0.545747  6 F  s
   219      0.545747  7 F  s                194     -0.522064  6 F  pz
   230     -0.522064  7 F  pz               116      0.493461  4 C  pz

 Vector   72  Occ=0.000000D+00  E= 1.077039D+00
              MO Center=  1.3D-01, -6.7D-02, -3.1D-09, r^2= 3.2D+00
   Bfn.  Coefficient  Atom+Function         Bfn.  Coefficient  Atom+Function
  ----- ------------  ---------------      ----- ------------  ---------------
   112      6.275189  4 C  s                132     -4.205643  4 C  dyy
   111     -4.015400  4 C  s                113     -3.733993  4 C  s
    40      3.660414  2 C  s                134     -3.148871  4 C  dzz
   149      2.799194  5 F  s                129     -2.660480  4 C  dxx
    57     -2.490395  2 C  dxx               41      2.340806  2 C  s

 Vector   73  Occ=0.000000D+00  E= 1.138980D+00
              MO Center= -7.2D-02,  1.5D+00,  2.6D-08, r^2= 3.2D+00
   Bfn.  Coefficient  Atom+Function         Bfn.  Coefficient  Atom+Function
  ----- ------------  ---------------      ----- ------------  ---------------
    40      4.924452  2 C  s                 60     -4.622355  2 C  dyy
     5      4.293815  1 O  s                 39     -4.269613  2 C  s
    77      3.773853  3 O  s                 57     -3.576985  2 C  dxx
    62     -3.327356  2 C  dzz               12      1.801479  1 O  px
    84     -1.621984  3 O  px                46     -1.372017  2 C  py

 Vector   74  Occ=0.000000D+00  E= 1.152859D+00
              MO Center= -9.0D-03,  5.8D-01, -3.1D-08, r^2= 2.9D+00
   Bfn.  Coefficient  Atom+Function         Bfn.  Coefficient  Atom+Function
  ----- ------------  ---------------      ----- ------------  ---------------
    47      2.985773  2 C  pz               133     -2.178625  4 C  dyz
   185     -1.435693  6 F  s                221      1.435693  7 F  s
   119      1.080941  4 C  pz                50     -0.979045  2 C  pz
    44     -0.912430  2 C  pz                65     -0.845237  2 C  fxxz
    70     -0.824385  2 C  fyyz              61     -0.810335  2 C  dyz

 Vector   75  Occ=0.000000D+00  E= 1.273375D+00
              MO Center= -2.4D-05,  3.0D-01, -7.3D-10, r^2= 3.7D+00
   Bfn.  Coefficient  Atom+Function         Bfn.  Coefficient  Atom+Function
  ----- ------------  ---------------      ----- ------------  ---------------
    45      4.273802  2 C  px                58      4.122740  2 C  dxy
   112     -3.878237  4 C  s                134      3.188452  4 C  dzz
   111      2.860552  4 C  s                 40      2.317056  2 C  s
   129      2.299679  4 C  dxx              185     -2.234780  6 F  s
   221     -2.234780  7 F  s                132      1.999926  4 C  dyy

 Vector   76  Occ=0.000000D+00  E= 1.287305D+00
              MO Center=  1.3D-01,  2.0D-01,  1.2D-09, r^2= 3.5D+00
   Bfn.  Coefficient  Atom+Function         Bfn.  Coefficient  Atom+Function
  ----- ------------  ---------------      ----- ------------  ---------------
    45      5.106793  2 C  px               149     -3.367935  5 F  s
   130     -2.625126  4 C  dxy               77     -2.569336  3 O  s
   129      2.318446  4 C  dxx                5      2.092846  1 O  s
   117      1.959127  4 C  px               112     -1.839687  4 C  s
   111      1.564900  4 C  s                 41      1.385869  2 C  s

 Vector   77  Occ=0.000000D+00  E= 1.371076D+00
              MO Center= -1.1D-01,  1.8D-01,  3.8D-09, r^2= 4.1D+00
   Bfn.  Coefficient  Atom+Function         Bfn.  Coefficient  Atom+Function
  ----- ------------  ---------------      ----- ------------  ---------------
   112      5.680022  4 C  s                 45      5.073498  2 C  px
   111     -4.097169  4 C  s                129     -3.968246  4 C  dxx
   134     -3.788004  4 C  dzz               58      3.628283  2 C  dxy
    77     -3.629952  3 O  s                185      3.205615  6 F  s
   221      3.205615  7 F  s                132     -2.888544  4 C  dyy

 Vector   78  Occ=0.000000D+00  E= 1.444197D+00
              MO Center=  1.7D-01,  1.2D+00, -1.0D-09, r^2= 2.8D+00
   Bfn.  Coefficient  Atom+Function         Bfn.  Coefficient  Atom+Function
  ----- ------------  ---------------      ----- ------------  ---------------
   119      2.893460  4 C  pz               185     -1.739186  6 F  s
   221      1.739186  7 F  s                131     -1.378530  4 C  dxz
   133     -0.925293  4 C  dyz               97      0.904162  3 O  dyz
    95     -0.787708  3 O  dxz               23     -0.740390  1 O  dxz
    25     -0.600419  1 O  dyz              194      0.510857  6 F  pz

 Vector   79  Occ=0.000000D+00  E= 1.468815D+00
              MO Center= -9.5D-02,  1.3D-01, -2.0D-09, r^2= 3.1D+00
   Bfn.  Coefficient  Atom+Function         Bfn.  Coefficient  Atom+Function
  ----- ------------  ---------------      ----- ------------  ---------------
    40      5.437314  2 C  s                117      4.104759  4 C  px
    46      3.387472  2 C  py               149     -3.269209  5 F  s
     5     -2.937663  1 O  s                112      2.826500  4 C  s
    57      2.448890  2 C  dxx               45     -1.678971  2 C  px
    77     -1.398142  3 O  s                156      1.254038  5 F  px

 Vector   80  Occ=0.000000D+00  E= 1.515100D+00
              MO Center= -4.7D-01,  1.6D-01, -2.5D-09, r^2= 3.4D+00
   Bfn.  Coefficient  Atom+Function         Bfn.  Coefficient  Atom+Function
  ----- ------------  ---------------      ----- ------------  ---------------
   119      4.760178  4 C  pz               185     -2.979676  6 F  s
   221      2.979676  7 F  s                131     -2.508404  4 C  dxz
   133     -1.922736  4 C  dyz               25      1.048079  1 O  dyz
   116     -0.817962  4 C  pz               194      0.800531  6 F  pz
   230      0.800531  7 F  pz               137     -0.741648  4 C  fxxz

 Vector   81  Occ=0.000000D+00  E= 1.629764D+00
              MO Center=  2.0D-01,  2.9D-01, -1.6D-09, r^2= 2.9D+00
   Bfn.  Coefficient  Atom+Function         Bfn.  Coefficient  Atom+Function
  ----- ------------  ---------------      ----- ------------  ---------------
   118      5.056176  4 C  py                46      4.672632  2 C  py
   132      3.095914  4 C  dyy               60     -2.239575  2 C  dyy
   113      1.905631  4 C  s                 41     -1.564607  2 C  s
   111      1.359853  4 C  s                 40     -1.278519  2 C  s
   117      1.198392  4 C  px               121      1.112280  4 C  py

 Vector   82  Occ=0.000000D+00  E= 1.650475D+00
              MO Center=  2.3D-01,  8.0D-01, -2.6D-10, r^2= 3.0D+00
   Bfn.  Coefficient  Atom+Function         Bfn.  Coefficient  Atom+Function
  ----- ------------  ---------------      ----- ------------  ---------------
   119      3.202524  4 C  pz               131     -1.262304  4 C  dxz
    97     -1.239864  3 O  dyz              185     -1.241081  6 F  s
   221      1.241081  7 F  s                 47     -1.018034  2 C  pz
    61      0.855067  2 C  dyz              142     -0.801643  4 C  fyyz
    25     -0.745279  1 O  dyz              144     -0.550369  4 C  fzzz

 Vector   83  Occ=0.000000D+00  E= 1.680523D+00
              MO Center= -1.1D-02,  1.5D+00,  2.7D-10, r^2= 2.6D+00
   Bfn.  Coefficient  Atom+Function         Bfn.  Coefficient  Atom+Function
  ----- ------------  ---------------      ----- ------------  ---------------
    45      4.637557  2 C  px                 5      3.600848  1 O  s
    40     -3.330611  2 C  s                 58      2.963678  2 C  dxy
     4      1.541621  1 O  s                117      1.522727  4 C  px
     9      1.461982  1 O  px                77     -1.395317  3 O  s
    46     -1.342981  2 C  py                22     -1.275068  1 O  dxy

 Vector   84  Occ=0.000000D+00  E= 1.705270D+00
              MO Center=  1.3D-01,  8.3D-01,  9.2D-10, r^2= 3.5D+00
   Bfn.  Coefficient  Atom+Function         Bfn.  Coefficient  Atom+Function
  ----- ------------  ---------------      ----- ------------  ---------------
    40      6.096376  2 C  s                 77     -3.424713  3 O  s
   117     -3.057502  4 C  px                45      2.810413  2 C  px
    46      2.572897  2 C  py                76     -2.087927  3 O  s
   149      2.063759  5 F  s                112      2.038623  4 C  s
    57      1.903003  2 C  dxx               62     -1.662146  2 C  dzz

 Vector   85  Occ=0.000000D+00  E= 1.779490D+00
              MO Center=  7.6D-02,  6.4D-01,  5.6D-09, r^2= 3.0D+00
   Bfn.  Coefficient  Atom+Function         Bfn.  Coefficient  Atom+Function
  ----- ------------  ---------------      ----- ------------  ---------------
    46      5.235080  2 C  py               132      2.615668  4 C  dyy
   118      2.407574  4 C  py               111      2.133717  4 C  s
    40     -1.804192  2 C  s                112     -1.587727  4 C  s
    60     -1.571801  2 C  dyy              113      1.406605  4 C  s
    41     -1.225475  2 C  s                134      1.215011  4 C  dzz

 Vector   86  Occ=0.000000D+00  E= 1.795770D+00
              MO Center= -5.9D-02, -7.9D-01, -1.8D-09, r^2= 2.3D+00
   Bfn.  Coefficient  Atom+Function         Bfn.  Coefficient  Atom+Function
  ----- ------------  ---------------      ----- ------------  ---------------
   169      0.774334  5 F  dyz              202     -0.772694  6 F  dxy
   238      0.772694  7 F  dxy              137      0.626069  4 C  fxxz
   205     -0.323323  6 F  dyz              241     -0.323323  7 F  dyz
    23      0.318933  1 O  dxz               11     -0.279176  1 O  pz
   119     -0.280572  4 C  pz                61     -0.248467  2 C  dyz

 Vector   87  Occ=0.000000D+00  E= 1.858235D+00
              MO Center=  3.8D-01, -7.5D-01,  7.8D-08, r^2= 2.6D+00
   Bfn.  Coefficient  Atom+Function         Bfn.  Coefficient  Atom+Function
  ----- ------------  ---------------      ----- ------------  ---------------
    40      1.026308  2 C  s                166      0.763583  5 F  dxy
   113     -0.749328  4 C  s                 45      0.742977  2 C  px
    41      0.641656  2 C  s                170     -0.569217  5 F  dzz
    39     -0.475282  2 C  s                 76      0.417321  3 O  s
   120      0.410342  4 C  px               185      0.412259  6 F  s

 Vector   88  Occ=0.000000D+00  E= 1.864372D+00
              MO Center= -4.6D-01, -8.3D-01, -7.9D-08, r^2= 2.4D+00
   Bfn.  Coefficient  Atom+Function         Bfn.  Coefficient  Atom+Function
  ----- ------------  ---------------      ----- ------------  ---------------
   205      0.677122  6 F  dyz              241      0.677122  7 F  dyz
   203     -0.605905  6 F  dxz              239     -0.605906  7 F  dxz
    95     -0.461709  3 O  dxz               59     -0.396308  2 C  dxz
   204      0.365526  6 F  dyy              240     -0.365526  7 F  dyy
    86      0.328405  3 O  pz                97     -0.315602  3 O  dyz

 Vector   89  Occ=0.000000D+00  E= 1.875222D+00
              MO Center= -6.6D-01,  1.3D+00, -2.0D-09, r^2= 3.0D+00
   Bfn.  Coefficient  Atom+Function         Bfn.  Coefficient  Atom+Function
  ----- ------------  ---------------      ----- ------------  ---------------
    59      1.366896  2 C  dxz               23      1.297162  1 O  dxz
    11     -1.106188  1 O  pz                14      1.003357  1 O  pz
    25     -0.809187  1 O  dyz               83      0.544136  3 O  pz
    47     -0.510787  2 C  pz               119      0.502268  4 C  pz
   169     -0.495628  5 F  dyz               97      0.468640  3 O  dyz

 Vector   90  Occ=0.000000D+00  E= 1.900396D+00
              MO Center= -1.2D-01,  1.2D+00, -1.7D-09, r^2= 3.5D+00
   Bfn.  Coefficient  Atom+Function         Bfn.  Coefficient  Atom+Function
  ----- ------------  ---------------      ----- ------------  ---------------
    40      6.336779  2 C  s                 39     -2.959490  2 C  s
    60     -2.560688  2 C  dyy               57     -2.234143  2 C  dxx
   112     -1.928961  4 C  s                 62     -1.813279  2 C  dzz
    45     -1.584022  2 C  px                58     -1.488417  2 C  dxy
   111      1.404496  4 C  s                132      1.218121  4 C  dyy

 Vector   91  Occ=0.000000D+00  E= 1.924321D+00
              MO Center= -2.6D-01,  1.2D+00,  8.8D-09, r^2= 3.2D+00
   Bfn.  Coefficient  Atom+Function         Bfn.  Coefficient  Atom+Function
  ----- ------------  ---------------      ----- ------------  ---------------
    40      4.803024  2 C  s                 58      2.601176  2 C  dxy
    39     -2.429910  2 C  s                 60     -2.294437  2 C  dyy
    45      2.066038  2 C  px                57     -1.715783  2 C  dxx
   117      1.415534  4 C  px                62     -1.366317  2 C  dzz
     5      1.234463  1 O  s                 10     -1.199878  1 O  py

 Vector   92  Occ=0.000000D+00  E= 1.927009D+00
              MO Center=  7.0D-01,  1.1D+00, -8.1D-09, r^2= 3.0D+00
   Bfn.  Coefficient  Atom+Function         Bfn.  Coefficient  Atom+Function
  ----- ------------  ---------------      ----- ------------  ---------------
    95      1.373839  3 O  dxz               83      1.278051  3 O  pz
    86     -1.070852  3 O  pz                61      0.932190  2 C  dyz
   119      0.868037  4 C  pz                23     -0.739157  1 O  dxz
    50      0.500242  2 C  pz                59      0.487929  2 C  dxz
    80     -0.487782  3 O  pz                47      0.446312  2 C  pz

 Vector   93  Occ=0.000000D+00  E= 1.993873D+00
              MO Center=  7.5D-01,  9.4D-01,  3.0D-09, r^2= 3.2D+00
   Bfn.  Coefficient  Atom+Function         Bfn.  Coefficient  Atom+Function
  ----- ------------  ---------------      ----- ------------  ---------------
    40      3.258993  2 C  s                 60     -2.487304  2 C  dyy
    46      2.288823  2 C  py               112      1.637533  4 C  s
   118      1.555100  4 C  py                81      1.492090  3 O  px
    39     -1.401689  2 C  s                113     -1.285624  4 C  s
     4     -1.250672  1 O  s                 85      1.243715  3 O  py

 Vector   94  Occ=0.000000D+00  E= 2.015090D+00
              MO Center= -2.3D-01,  1.2D+00,  1.6D-09, r^2= 3.3D+00
   Bfn.  Coefficient  Atom+Function         Bfn.  Coefficient  Atom+Function
  ----- ------------  ---------------      ----- ------------  ---------------
    45      3.662118  2 C  px                 9      2.081666  1 O  px
     5      1.686808  1 O  s                 40     -1.513159  2 C  s
   112     -1.348608  4 C  s                 58      1.181502  2 C  dxy
    60      0.965037  2 C  dyy               77     -0.936112  3 O  s
    94      0.937556  3 O  dxy               13     -0.821132  1 O  py

 Vector   95  Occ=0.000000D+00  E= 2.047603D+00
              MO Center=  5.5D-02, -1.0D+00,  3.5D-09, r^2= 1.9D+00
   Bfn.  Coefficient  Atom+Function         Bfn.  Coefficient  Atom+Function
[...]

 Vector  244  Occ=0.000000D+00  E= 2.201837D+01
              MO Center=  7.2D-01, -1.1D+00, -2.8D-08, r^2= 1.3D+00
   Bfn.  Coefficient  Atom+Function         Bfn.  Coefficient  Atom+Function
  ----- ------------  ---------------      ----- ------------  ---------------
   148     12.251193  5 F  s                184     -5.335444  6 F  s
   220     -5.335445  7 F  s                165     -3.816752  5 F  dxx
   168     -3.754896  5 F  dyy              170     -3.708793  5 F  dzz
   162     -2.779662  5 F  dyy              164     -2.793450  5 F  dzz
   159     -2.762076  5 F  dxx              206      1.679633  6 F  dzz

 Vector  245  Occ=0.000000D+00  E= 2.203722D+01
              MO Center= -1.1D-01, -1.1D+00, -3.6D-08, r^2= 1.8D+00
   Bfn.  Coefficient  Atom+Function         Bfn.  Coefficient  Atom+Function
  ----- ------------  ---------------      ----- ------------  ---------------
   184      9.138079  6 F  s                220      9.138080  7 F  s
   148      8.025885  5 F  s                112      4.589788  4 C  s
   206     -2.894878  6 F  dzz              242     -2.894879  7 F  dzz
   201     -2.805925  6 F  dxx              237     -2.805925  7 F  dxx
   204     -2.748754  6 F  dyy              240     -2.748754  7 F  dyy

 Vector  246  Occ=0.000000D+00  E= 3.414111D+01
              MO Center=  8.1D-03, -1.2D-01, -3.4D-11, r^2= 6.4D-01
   Bfn.  Coefficient  Atom+Function         Bfn.  Coefficient  Atom+Function
  ----- ------------  ---------------      ----- ------------  ---------------
   111      5.285826  4 C  s                110     -3.325004  4 C  s
    39      3.278755  2 C  s                123     -2.279926  4 C  dxx
   126     -2.271226  4 C  dyy              128     -2.279021  4 C  dzz
    38     -1.919264  2 C  s                112      1.802487  4 C  s
   109      1.437168  4 C  s                 51     -1.365070  2 C  dxx

 Vector  247  Occ=0.000000D+00  E= 3.429678D+01
              MO Center=  7.3D-03,  6.8D-01, -1.5D-11, r^2= 6.4D-01
   Bfn.  Coefficient  Atom+Function         Bfn.  Coefficient  Atom+Function
  ----- ------------  ---------------      ----- ------------  ---------------
    39      5.365534  2 C  s                 38     -3.331686  2 C  s
   111     -2.752200  4 C  s                 51     -2.395220  2 C  dxx
    54     -2.239115  2 C  dyy               56     -2.244546  2 C  dzz
   110      1.929818  4 C  s                 37      1.438402  2 C  s
   112     -1.394971  4 C  s                123      1.336576  4 C  dxx

 Vector  248  Occ=0.000000D+00  E= 7.107729D+01
              MO Center=  2.8D-01,  1.6D+00,  1.8D-12, r^2= 1.3D+00
   Bfn.  Coefficient  Atom+Function         Bfn.  Coefficient  Atom+Function
  ----- ------------  ---------------      ----- ------------  ---------------
    75      7.661485  3 O  s                  3      5.887907  1 O  s
    74     -3.299015  3 O  s                 76     -2.686496  3 O  s
     2     -2.553261  1 O  s                 92     -2.154421  3 O  dzz
    87     -2.133969  3 O  dxx               90     -2.143169  3 O  dyy
     4     -2.047367  1 O  s                 20     -1.670618  1 O  dzz

 Vector  249  Occ=0.000000D+00  E= 7.111209D+01
              MO Center= -2.8D-01,  1.6D+00,  5.0D-13, r^2= 1.3D+00
   Bfn.  Coefficient  Atom+Function         Bfn.  Coefficient  Atom+Function
  ----- ------------  ---------------      ----- ------------  ---------------
     3      7.742466  1 O  s                 75     -6.025964  3 O  s
     2     -3.300664  1 O  s                  4     -2.788407  1 O  s
    74      2.554054  3 O  s                 76      2.211854  3 O  s
    18     -2.149033  1 O  dyy               15     -2.138279  1 O  dxx
    20     -2.147496  1 O  dzz               87      1.654822  3 O  dxx

 Vector  250  Occ=0.000000D+00  E= 9.455382D+01
              MO Center= -6.2D-01, -1.0D+00,  4.0D-08, r^2= 1.2D+00
   Bfn.  Coefficient  Atom+Function         Bfn.  Coefficient  Atom+Function
  ----- ------------  ---------------      ----- ------------  ---------------
   183      8.507642  6 F  s                219     -8.507642  7 F  s
   184     -4.935100  6 F  s                220      4.935099  7 F  s
   182     -3.054586  6 F  s                218      3.054586  7 F  s
   195     -1.950084  6 F  dxx              198     -1.951379  6 F  dyy
   200     -1.952279  6 F  dzz              231      1.950084  7 F  dxx

 Vector  251  Occ=0.000000D+00  E= 9.463714D+01
              MO Center=  7.2D-01, -1.1D+00, -1.5D-08, r^2= 1.1D+00
   Bfn.  Coefficient  Atom+Function         Bfn.  Coefficient  Atom+Function
  ----- ------------  ---------------      ----- ------------  ---------------
   147     10.110695  5 F  s                148     -5.729953  5 F  s
   183     -4.452997  6 F  s                219     -4.452997  7 F  s
   146     -3.671921  5 F  s                184      2.526011  6 F  s
   220      2.526011  7 F  s                159     -2.347132  5 F  dxx
   162     -2.351232  5 F  dyy              164     -2.356087  5 F  dzz

 Vector  252  Occ=0.000000D+00  E= 9.469304D+01
              MO Center= -1.0D-01, -1.1D+00, -2.5D-08, r^2= 1.6D+00
   Bfn.  Coefficient  Atom+Function         Bfn.  Coefficient  Atom+Function
  ----- ------------  ---------------      ----- ------------  ---------------
   183      7.055453  6 F  s                219      7.055454  7 F  s
   147      6.208661  5 F  s                184     -3.849252  6 F  s
   220     -3.849252  7 F  s                148     -3.380312  5 F  s
   182     -2.599420  6 F  s                218     -2.599421  7 F  s
   146     -2.289460  5 F  s                112      1.902482  4 C  s


 center of mass
 --------------
 x =  -0.00018600 y =  -0.05321368 z =   0.00000000

 moments of inertia (a.u.)
 ------------------
         730.184741242820          -0.000000000000           0.000000000000
          -0.000000000000         458.245842334452           0.000000000000
           0.000000000000           0.000000000000         873.592875718597

     Multipole analysis of the density
     ---------------------------------

     L   x y z        total         alpha         beta         nuclear
     -   - - -        -----         -----         ----         -------
     0   0 0 0     -1.000000    -28.000000    -28.000000     55.000000

     1   1 0 0      0.042203      0.021102      0.021102      0.000000
     1   0 1 0     -2.102988     -1.051494     -1.051494     -0.000000
     1   0 0 1     -0.000000     -0.000000     -0.000000      0.000000

     2   2 0 0    -35.124172    -90.717191    -90.717191    146.310211
     2   1 1 0     -0.025106     -0.038884     -0.038884      0.052662
     2   1 0 1      0.000000      0.000000      0.000000      0.000000
     2   0 2 0    -38.860163   -159.736598   -159.736598    280.613033
     2   0 1 1      0.000000      0.000000      0.000000      0.000000
     2   0 0 2    -28.517656    -51.545381    -51.545381     74.573105


          -----------------------------------------
          Chemical Shielding Tensors (GIAO, in ppm)
          -----------------------------------------

                                NWChem CPHF Module
                                ------------------


 in cosmo_initialize ...
 calling solv_data for solv:h2o

 solvent parameters
 solvname_short: h2o
 solvname_long:  water
 dielec:       78.4000

          ---------------
          -cosmo- solvent
          ---------------
 Cosmo: York-Karplus, doi: 10.1021/jp992097l
 dielectric constant -eps-     =  78.40
 screen = (eps-1)/(eps    )    =   0.98724
 surface charge correction     = lagrangian

 solvent accessible surface
 --------------------------

 ---------- ATOMIC COORDINATES (A.U.) ------------ VDWR(ANG.) --
     1   -2.11905361    2.95135507    0.00000000     1.720
     2    0.01348292    2.04669025    0.00000000     2.000
     3    2.12116250    3.00219733    0.00000000     1.720
     4    0.01526329   -0.99731197    0.00000000     2.000
     5    2.34038355   -2.03862127    0.00000000     1.720
     6   -1.18071113   -1.97650542    2.03542386     1.720
     7   -1.18071113   -1.97650542   -2.03542386     1.720
 number of segments per atom =         32
 number of   points per atom =         32
 atom (   nspa,  nppa )
 ----------------------
    1 (     20,     0 )       0
    2 (     12,     0 )       0
    3 (     20,     0 )       0
    4 (      6,     0 )       0
    5 (     18,     0 )       0
    6 (     20,     0 )       0
    7 (     20,     0 )       0
 number of -cosmo- surface points =      116
 molecular surface =    112.667 angstrom**2
 molecular volume  =     65.988 angstrom**3
 G(cav/disp)       =      1.423 kcal/mol
 -lineq- algorithm             =   0
 -bem- low  level              =   2
 -bem- from -octahedral-
 gaussian surface charge width =   4.50000
 degree of switching           =   1.00000
 switching function tolerance  =   0.00010
 atomic radii =
 --------------
    1  8.000  1.720
    2  6.000  2.000
    3  8.000  1.720
    4  6.000  2.000
    5  9.000  1.720
    6  9.000  1.720
    7  9.000  1.720
 ...... end of -cosmo- initialization ......


  scftype          =     RHF
  nclosed          =       28
  nopen            =        0
  variables        =     6272
  # of vectors     =        3
  tolerance        = 0.10D-03
  level shift      = 0.00D+00
  max iterations   =       50
  max subspace     =       30

 SCF residual:    3.2000763759489604E-005


Iterative solution of linear equations
  No. of variables     6272
  No. of equations        3
  Maximum subspace       30
        Iterations       50
       Convergence  1.0D-04
        Start time    618.0


   iter   nsub   residual    time
   ----  ------  --------  ---------
     1      3    2.63D-05     644.9

 Wrote CPHF data to ./shielding.shieldcphf

 Calc. par tensor-> nonrel
      Atom:    1  O
        Diamagnetic
    422.6264     -8.6769      0.0000
     -8.6769    405.0844      0.0000
      0.0000      0.0000    405.0316

        Paramagnetic
   -461.0117    -62.2688     -0.0000
    -62.2688   -427.9391     -0.0000
     -0.0000     -0.0000   -158.7943

        Total Shielding Tensor
    -38.3853    -70.9457     -0.0000
    -70.9457    -22.8546     -0.0000
     -0.0000     -0.0000    246.2373

           isotropic =      61.6658
          anisotropy =     276.8572

          Principal Components and Axis System
                 1           2           3
              246.2373   -101.9893     40.7494

      1        -0.0000      0.7446     -0.6675
      2        -0.0000      0.6675      0.7446
      3         1.0000      0.0000      0.0000



      Atom:    2  C
        Diamagnetic
    272.2837     -0.4079      0.0000
     -0.4079    258.4879     -0.0000
      0.0000     -0.0000    240.1540

        Paramagnetic
   -167.8121      2.0149     -0.0000
      2.0149   -306.6780      0.0000
     -0.0000      0.0000   -179.2606

        Total Shielding Tensor
    104.4716      1.6071     -0.0000
      1.6071    -48.1900     -0.0000
     -0.0000     -0.0000     60.8935

           isotropic =      39.0584
          anisotropy =      98.1452

          Principal Components and Axis System
                 1           2           3
              104.4885     60.8935    -48.2069

      1         0.9999      0.0000     -0.0105
      2         0.0105     -0.0000      0.9999
      3        -0.0000      1.0000      0.0000



      Atom:    3  O
        Diamagnetic
    422.8613     11.1434     -0.0000
     11.1434    404.2209     -0.0000
     -0.0000     -0.0000    404.8746

        Paramagnetic
   -496.7672     55.6619      0.0000
     55.6619   -431.4578      0.0000
      0.0000      0.0000   -154.3460

        Total Shielding Tensor
    -73.9059     66.8053      0.0000
     66.8053    -27.2368      0.0000
      0.0000      0.0000    250.5286

           isotropic =      49.7953
          anisotropy =     301.1000

          Principal Components and Axis System
                 1           2           3
              250.5286   -121.3347     20.1919

      1         0.0000      0.8154      0.5789
      2         0.0000     -0.5789      0.8154
      3         1.0000     -0.0000     -0.0000



      Atom:    4  C
        Diamagnetic
    251.0888      0.2116     -0.0000
      0.2116    249.2521     -0.0000
     -0.0000     -0.0000    248.6667

        Paramagnetic
   -177.4048     -2.1316      0.0000
     -2.1316   -197.0749      0.0000
      0.0000      0.0000   -197.0214

        Total Shielding Tensor
     73.6840     -1.9199      0.0000
     -1.9199     52.1772      0.0000
      0.0000      0.0000     51.6453

           isotropic =      59.1688
          anisotropy =      22.0279

          Principal Components and Axis System
                 1           2           3
               73.8541     52.0071     51.6453

      1         0.9961      0.0882     -0.0000
      2        -0.0882      0.9961     -0.0000
      3         0.0000      0.0000      1.0000



      Atom:    5  F
        Diamagnetic
    495.0736    -10.2101      0.0000
    -10.2101    476.2180     -0.0000
      0.0000     -0.0000    471.7286

        Paramagnetic
   -187.6114    -62.0623      0.0000
    -62.0623   -268.9828     -0.0000
      0.0000     -0.0000   -222.3121

        Total Shielding Tensor
    307.4622    -72.2724      0.0000
    -72.2724    207.2353     -0.0000
      0.0000     -0.0000    249.4164

           isotropic =     254.7047
          anisotropy =     135.8865

          Principal Components and Axis System
                 1           2           3
              345.2957    249.4164    169.4019

      1         0.8860     -0.0000      0.4638
      2        -0.4638     -0.0000      0.8860
      3         0.0000      1.0000      0.0000



      Atom:    6  F
        Diamagnetic
    476.2405      4.9255    -10.2991
      4.9255    475.1377     -7.9929
    -10.2991     -7.9929    487.9579

        Paramagnetic
   -223.8604     28.8638    -21.5470
     28.8638   -272.7688    -55.9520
    -21.5470    -55.9520   -183.4069

        Total Shielding Tensor
    252.3801     33.7893    -31.8461
     33.7893    202.3690    -63.9448
    -31.8461    -63.9448    304.5510

           isotropic =     253.1000
          anisotropy =     151.4485

          Principal Components and Axis System
                 1           2           3
              354.0657    237.4018    167.8326

      1        -0.3969      0.8909     -0.2210
      2        -0.4302      0.0322      0.9022
      3         0.8108      0.4531      0.3705



      Atom:    7  F
        Diamagnetic
    476.2405      4.9255     10.2991
      4.9255    475.1377      7.9929
     10.2991      7.9929    487.9579

        Paramagnetic
   -223.8604     28.8638     21.5470
     28.8638   -272.7688     55.9520
     21.5470     55.9520   -183.4069

        Total Shielding Tensor
    252.3801     33.7893     31.8461
     33.7893    202.3690     63.9448
     31.8461     63.9448    304.5510

           isotropic =     253.1000
          anisotropy =     151.4485

          Principal Components and Axis System
                 1           2           3
              354.0657    237.4018    167.8326

      1         0.3969      0.8909     -0.2210
      2         0.4302      0.0322      0.9022
      3         0.8108     -0.4531     -0.3705




 Task  times  cpu:      655.4s     wall:      651.1s
 Summary of allocated global arrays
-----------------------------------
  No active global arrays


MA_summarize_allocated_blocks: starting scan ...
heap block 'gridpts', handle 114, address 0x5602ec6c1638:
	type of elements:		double precision
	number of elements:		33554432
	address of client space:	0x5602ec6c16c0
	index for client space:		8461235
	total number of bytes:		268435600
MA_summarize_allocated_blocks: scan completed: 1 heap block, 0 stack blocks
MA usage statistics:

	allocation statistics:
					      heap	     stack
					      ----	     -----
	current number of blocks	         1	         0
	maximum number of blocks	        31	        59
	current total bytes		 268435600	         0
	maximum total bytes		 278809912	  32510904
	maximum total K-bytes		    278810	     32511
	maximum total M-bytes		       279	        33


                                NWChem Input Module
                                -------------------




                                     CITATION
                                     --------
                Please cite the following reference when publishing
                           results obtained with NWChem:

          E. Apra, E. J. Bylaska, W. A. de Jong, N. Govind, K. Kowalski,
       T. P. Straatsma, M. Valiev, H. J. J. van Dam, Y. Alexeev, J. Anchell,
       V. Anisimov, F. W. Aquino, R. Atta-Fynn, J. Autschbach, N. P. Bauman,
     J. C. Becca, D. E. Bernholdt, K. Bhaskaran-Nair, S. Bogatko, P. Borowski,
         J. Boschen, J. Brabec, A. Bruner, E. Cauet, Y. Chen, G. N. Chuev,
      C. J. Cramer, J. Daily, M. J. O. Deegan, T. H. Dunning Jr., M. Dupuis,
   K. G. Dyall, G. I. Fann, S. A. Fischer, A. Fonari, H. Fruchtl, L. Gagliardi,
      J. Garza, N. Gawande, S. Ghosh, K. Glaesemann, A. W. Gotz, J. Hammond,
       V. Helms, E. D. Hermes, K. Hirao, S. Hirata, M. Jacquelin, L. Jensen,
   B. G. Johnson, H. Jonsson, R. A. Kendall, M. Klemm, R. Kobayashi, V. Konkov,
      S. Krishnamoorthy, M. Krishnan, Z. Lin, R. D. Lins, R. J. Littlefield,
      A. J. Logsdail, K. Lopata, W. Ma, A. V. Marenich, J. Martin del Campo,
   D. Mejia-Rodriguez, J. E. Moore, J. M. Mullin, T. Nakajima, D. R. Nascimento,
    J. A. Nichols, P. J. Nichols, J. Nieplocha, A. Otero-de-la-Roza, B. Palmer,
    A. Panyala, T. Pirojsirikul, B. Peng, R. Peverati, J. Pittner, L. Pollack,
   R. M. Richard, P. Sadayappan, G. C. Schatz, W. A. Shelton, D. W. Silverstein,
   D. M. A. Smith, T. A. Soares, D. Song, M. Swart, H. L. Taylor, G. S. Thomas,
            V. Tipparaju, D. G. Truhlar, K. Tsemekhman, T. Van Voorhis,
      A. Vazquez-Mayagoitia, P. Verma, O. Villa, A. Vishnu, K. D. Vogiatzis,
        D. Wang, J. H. Weare, M. J. Williamson, T. L. Windus, K. Wolinski,
        A. T. Wong, Q. Wu, C. Yang, Q. Yu, M. Zacharias, Z. Zhang, Y. Zhao,
                                and R. J. Harrison
                        "NWChem: Past, present, and future
                         J. Chem. Phys. 152, 184102 (2020)
                               doi:10.1063/5.0004997

                                      AUTHORS
                                      -------
  E. Apra, E. J. Bylaska, N. Govind, K. Kowalski, M. Valiev, D. Mejia-Rodriguez,
       A. Kunitsa, N. P. Bauman, A. Panyala, W. A. de Jong, T. P. Straatsma,
   H. J. J. van Dam, D. Wang, T. L. Windus, J. Hammond, J. Autschbach, A. Woods,
    K. Bhaskaran-Nair, J. Brabec, K. Lopata, S. A. Fischer, S. Krishnamoorthy,
     M. Jacquelin, W. Ma, M. Klemm, O. Villa, Y. Chen, V. Anisimov, F. Aquino,
     S. Hirata, M. T. Hackler, E. Hermes, L. Jensen, J. E. Moore, J. C. Becca,
      V. Konjkov, T. Risthaus, M. Malagoli, A. Marenich, A. Otero-de-la-Roza,
        J. Mullin, P. Nichols, R. Peverati, J. Pittner, Y. Zhao, P.-D. Fan,
        A. Fonari, M. J. Williamson, R. J. Harrison, J. R. Rehr, M. Dupuis,
     D. Silverstein, D. M. A. Smith, J. Nieplocha, V. Tipparaju, M. Krishnan,
     B. E. Van Kuiken, A. Vazquez-Mayagoitia, M. Swart, Q. Wu, T. Van Voorhis,
     A. A. Auer, M. Nooijen, L. D. Crosby, E. Brown, G. Cisneros, G. I. Fann,
   H. Fruchtl, J. Garza, K. Hirao, R. A. Kendall, J. A. Nichols, K. Tsemekhman,
    K. Wolinski, J. Anchell, D. E. Bernholdt, P. Borowski, T. Clark, D. Clerc,
   H. Dachsel, M. J. O. Deegan, K. Dyall, D. Elwood, E. Glendening, M. Gutowski,
   A. C. Hess, J. Jaffe, B. G. Johnson, J. Ju, R. Kobayashi, R. Kutteh, Z. Lin,
   R. Littlefield, X. Long, B. Meng, T. Nakajima, S. Niu, L. Pollack, M. Rosing,
   K. Glaesemann, G. Sandrone, M. Stave, H. Taylor, G. Thomas, J. H. van Lenthe,
                               A. T. Wong, Z. Zhang.

 Total times  cpu:      655.4s     wall:      651.2s
